# vtk DataFile Version 2.0 
Grid
ASCII
DATASET STRUCTURED_GRID
DIMENSIONS 101 201 1
POINTS 20301 float
0.000000 0.000000 0.000000
0.020000 0.000000 0.000000
0.040000 0.000000 0.000000
0.060000 0.000000 0.000000
0.080000 0.000000 0.000000
0.100000 0.000000 0.000000
0.120000 0.000000 0.000000
0.140000 0.000000 0.000000
0.160000 0.000000 0.000000
0.180000 0.000000 0.000000
0.200000 0.000000 0.000000
0.220000 0.000000 0.000000
0.240000 0.000000 0.000000
0.260000 0.000000 0.000000
0.280000 0.000000 0.000000
0.300000 0.000000 0.000000
0.320000 0.000000 0.000000
0.340000 0.000000 0.000000
0.360000 0.000000 0.000000
0.380000 0.000000 0.000000
0.400000 0.000000 0.000000
0.420000 0.000000 0.000000
0.440000 0.000000 0.000000
0.460000 0.000000 0.000000
0.480000 0.000000 0.000000
0.500000 0.000000 0.000000
0.520000 0.000000 0.000000
0.540000 0.000000 0.000000
0.560000 0.000000 0.000000
0.580000 0.000000 0.000000
0.600000 0.000000 0.000000
0.620000 0.000000 0.000000
0.640000 0.000000 0.000000
0.660000 0.000000 0.000000
0.680000 0.000000 0.000000
0.700000 0.000000 0.000000
0.720000 0.000000 0.000000
0.740000 0.000000 0.000000
0.760000 0.000000 0.000000
0.780000 0.000000 0.000000
0.800000 0.000000 0.000000
0.820000 0.000000 0.000000
0.840000 0.000000 0.000000
0.860000 0.000000 0.000000
0.880000 0.000000 0.000000
0.900000 0.000000 0.000000
0.920000 0.000000 0.000000
0.940000 0.000000 0.000000
0.960000 0.000000 0.000000
0.980000 0.000000 0.000000
1.000000 0.000000 0.000000
1.020000 0.000000 0.000000
1.040000 0.000000 0.000000
1.060000 0.000000 0.000000
1.080000 0.000000 0.000000
1.100000 0.000000 0.000000
1.120000 0.000000 0.000000
1.140000 0.000000 0.000000
1.160000 0.000000 0.000000
1.180000 0.000000 0.000000
1.200000 0.000000 0.000000
1.220000 0.000000 0.000000
1.240000 0.000000 0.000000
1.260000 0.000000 0.000000
1.280000 0.000000 0.000000
1.300000 0.000000 0.000000
1.320000 0.000000 0.000000
1.340000 0.000000 0.000000
1.360000 0.000000 0.000000
1.380000 0.000000 0.000000
1.400000 0.000000 0.000000
1.420000 0.000000 0.000000
1.440000 0.000000 0.000000
1.460000 0.000000 0.000000
1.480000 0.000000 0.000000
1.500000 0.000000 0.000000
1.520000 0.000000 0.000000
1.540000 0.000000 0.000000
1.560000 0.000000 0.000000
1.580000 0.000000 0.000000
1.600000 0.000000 0.000000
1.620000 0.000000 0.000000
1.640000 0.000000 0.000000
1.660000 0.000000 0.000000
1.680000 0.000000 0.000000
1.700000 0.000000 0.000000
1.720000 0.000000 0.000000
1.740000 0.000000 0.000000
1.760000 0.000000 0.000000
1.780000 0.000000 0.000000
1.800000 0.000000 0.000000
1.820000 0.000000 0.000000
1.840000 0.000000 0.000000
1.860000 0.000000 0.000000
1.880000 0.000000 0.000000
1.900000 0.000000 0.000000
1.920000 0.000000 0.000000
1.940000 0.000000 0.000000
1.960000 0.000000 0.000000
1.980000 0.000000 0.000000
2.000000 0.000000 0.000000
0.000000 0.005000 0.000000
0.020000 0.005000 0.000000
0.040000 0.005000 0.000000
0.060000 0.005000 0.000000
0.080000 0.005000 0.000000
0.100000 0.005000 0.000000
0.120000 0.005000 0.000000
0.140000 0.005000 0.000000
0.160000 0.005000 0.000000
0.180000 0.005000 0.000000
0.200000 0.005000 0.000000
0.220000 0.005000 0.000000
0.240000 0.005000 0.000000
0.260000 0.005000 0.000000
0.280000 0.005000 0.000000
0.300000 0.005000 0.000000
0.320000 0.005000 0.000000
0.340000 0.005000 0.000000
0.360000 0.005000 0.000000
0.380000 0.005000 0.000000
0.400000 0.005000 0.000000
0.420000 0.005000 0.000000
0.440000 0.005000 0.000000
0.460000 0.005000 0.000000
0.480000 0.005000 0.000000
0.500000 0.005000 0.000000
0.520000 0.005000 0.000000
0.540000 0.005000 0.000000
0.560000 0.005000 0.000000
0.580000 0.005000 0.000000
0.600000 0.005000 0.000000
0.620000 0.005000 0.000000
0.640000 0.005000 0.000000
0.660000 0.005000 0.000000
0.680000 0.005000 0.000000
0.700000 0.005000 0.000000
0.720000 0.005000 0.000000
0.740000 0.005000 0.000000
0.760000 0.005000 0.000000
0.780000 0.005000 0.000000
0.800000 0.005000 0.000000
0.820000 0.005000 0.000000
0.840000 0.005000 0.000000
0.860000 0.005000 0.000000
0.880000 0.005000 0.000000
0.900000 0.005000 0.000000
0.920000 0.005000 0.000000
0.940000 0.005000 0.000000
0.960000 0.005000 0.000000
0.980000 0.005000 0.000000
1.000000 0.005000 0.000000
1.020000 0.005000 0.000000
1.040000 0.005000 0.000000
1.060000 0.005000 0.000000
1.080000 0.005000 0.000000
1.100000 0.005000 0.000000
1.120000 0.005000 0.000000
1.140000 0.005000 0.000000
1.160000 0.005000 0.000000
1.180000 0.005000 0.000000
1.200000 0.005000 0.000000
1.220000 0.005000 0.000000
1.240000 0.005000 0.000000
1.260000 0.005000 0.000000
1.280000 0.005000 0.000000
1.300000 0.005000 0.000000
1.320000 0.005000 0.000000
1.340000 0.005000 0.000000
1.360000 0.005000 0.000000
1.380000 0.005000 0.000000
1.400000 0.005000 0.000000
1.420000 0.005000 0.000000
1.440000 0.005000 0.000000
1.460000 0.005000 0.000000
1.480000 0.005000 0.000000
1.500000 0.005000 0.000000
1.520000 0.005000 0.000000
1.540000 0.005000 0.000000
1.560000 0.005000 0.000000
1.580000 0.005000 0.000000
1.600000 0.005000 0.000000
1.620000 0.005000 0.000000
1.640000 0.005000 0.000000
1.660000 0.005000 0.000000
1.680000 0.005000 0.000000
1.700000 0.005000 0.000000
1.720000 0.005000 0.000000
1.740000 0.005000 0.000000
1.760000 0.005000 0.000000
1.780000 0.005000 0.000000
1.800000 0.005000 0.000000
1.820000 0.005000 0.000000
1.840000 0.005000 0.000000
1.860000 0.005000 0.000000
1.880000 0.005000 0.000000
1.900000 0.005000 0.000000
1.920000 0.005000 0.000000
1.940000 0.005000 0.000000
1.960000 0.005000 0.000000
1.980000 0.005000 0.000000
2.000000 0.005000 0.000000
0.000000 0.010000 0.000000
0.020000 0.010000 0.000000
0.040000 0.010000 0.000000
0.060000 0.010000 0.000000
0.080000 0.010000 0.000000
0.100000 0.010000 0.000000
0.120000 0.010000 0.000000
0.140000 0.010000 0.000000
0.160000 0.010000 0.000000
0.180000 0.010000 0.000000
0.200000 0.010000 0.000000
0.220000 0.010000 0.000000
0.240000 0.010000 0.000000
0.260000 0.010000 0.000000
0.280000 0.010000 0.000000
0.300000 0.010000 0.000000
0.320000 0.010000 0.000000
0.340000 0.010000 0.000000
0.360000 0.010000 0.000000
0.380000 0.010000 0.000000
0.400000 0.010000 0.000000
0.420000 0.010000 0.000000
0.440000 0.010000 0.000000
0.460000 0.010000 0.000000
0.480000 0.010000 0.000000
0.500000 0.010000 0.000000
0.520000 0.010000 0.000000
0.540000 0.010000 0.000000
0.560000 0.010000 0.000000
0.580000 0.010000 0.000000
0.600000 0.010000 0.000000
0.620000 0.010000 0.000000
0.640000 0.010000 0.000000
0.660000 0.010000 0.000000
0.680000 0.010000 0.000000
0.700000 0.010000 0.000000
0.720000 0.010000 0.000000
0.740000 0.010000 0.000000
0.760000 0.010000 0.000000
0.780000 0.010000 0.000000
0.800000 0.010000 0.000000
0.820000 0.010000 0.000000
0.840000 0.010000 0.000000
0.860000 0.010000 0.000000
0.880000 0.010000 0.000000
0.900000 0.010000 0.000000
0.920000 0.010000 0.000000
0.940000 0.010000 0.000000
0.960000 0.010000 0.000000
0.980000 0.010000 0.000000
1.000000 0.010000 0.000000
1.020000 0.010000 0.000000
1.040000 0.010000 0.000000
1.060000 0.010000 0.000000
1.080000 0.010000 0.000000
1.100000 0.010000 0.000000
1.120000 0.010000 0.000000
1.140000 0.010000 0.000000
1.160000 0.010000 0.000000
1.180000 0.010000 0.000000
1.200000 0.010000 0.000000
1.220000 0.010000 0.000000
1.240000 0.010000 0.000000
1.260000 0.010000 0.000000
1.280000 0.010000 0.000000
1.300000 0.010000 0.000000
1.320000 0.010000 0.000000
1.340000 0.010000 0.000000
1.360000 0.010000 0.000000
1.380000 0.010000 0.000000
1.400000 0.010000 0.000000
1.420000 0.010000 0.000000
1.440000 0.010000 0.000000
1.460000 0.010000 0.000000
1.480000 0.010000 0.000000
1.500000 0.010000 0.000000
1.520000 0.010000 0.000000
1.540000 0.010000 0.000000
1.560000 0.010000 0.000000
1.580000 0.010000 0.000000
1.600000 0.010000 0.000000
1.620000 0.010000 0.000000
1.640000 0.010000 0.000000
1.660000 0.010000 0.000000
1.680000 0.010000 0.000000
1.700000 0.010000 0.000000
1.720000 0.010000 0.000000
1.740000 0.010000 0.000000
1.760000 0.010000 0.000000
1.780000 0.010000 0.000000
1.800000 0.010000 0.000000
1.820000 0.010000 0.000000
1.840000 0.010000 0.000000
1.860000 0.010000 0.000000
1.880000 0.010000 0.000000
1.900000 0.010000 0.000000
1.920000 0.010000 0.000000
1.940000 0.010000 0.000000
1.960000 0.010000 0.000000
1.980000 0.010000 0.000000
2.000000 0.010000 0.000000
0.000000 0.015000 0.000000
0.020000 0.015000 0.000000
0.040000 0.015000 0.000000
0.060000 0.015000 0.000000
0.080000 0.015000 0.000000
0.100000 0.015000 0.000000
0.120000 0.015000 0.000000
0.140000 0.015000 0.000000
0.160000 0.015000 0.000000
0.180000 0.015000 0.000000
0.200000 0.015000 0.000000
0.220000 0.015000 0.000000
0.240000 0.015000 0.000000
0.260000 0.015000 0.000000
0.280000 0.015000 0.000000
0.300000 0.015000 0.000000
0.320000 0.015000 0.000000
0.340000 0.015000 0.000000
0.360000 0.015000 0.000000
0.380000 0.015000 0.000000
0.400000 0.015000 0.000000
0.420000 0.015000 0.000000
0.440000 0.015000 0.000000
0.460000 0.015000 0.000000
0.480000 0.015000 0.000000
0.500000 0.015000 0.000000
0.520000 0.015000 0.000000
0.540000 0.015000 0.000000
0.560000 0.015000 0.000000
0.580000 0.015000 0.000000
0.600000 0.015000 0.000000
0.620000 0.015000 0.000000
0.640000 0.015000 0.000000
0.660000 0.015000 0.000000
0.680000 0.015000 0.000000
0.700000 0.015000 0.000000
0.720000 0.015000 0.000000
0.740000 0.015000 0.000000
0.760000 0.015000 0.000000
0.780000 0.015000 0.000000
0.800000 0.015000 0.000000
0.820000 0.015000 0.000000
0.840000 0.015000 0.000000
0.860000 0.015000 0.000000
0.880000 0.015000 0.000000
0.900000 0.015000 0.000000
0.920000 0.015000 0.000000
0.940000 0.015000 0.000000
0.960000 0.015000 0.000000
0.980000 0.015000 0.000000
1.000000 0.015000 0.000000
1.020000 0.015000 0.000000
1.040000 0.015000 0.000000
1.060000 0.015000 0.000000
1.080000 0.015000 0.000000
1.100000 0.015000 0.000000
1.120000 0.015000 0.000000
1.140000 0.015000 0.000000
1.160000 0.015000 0.000000
1.180000 0.015000 0.000000
1.200000 0.015000 0.000000
1.220000 0.015000 0.000000
1.240000 0.015000 0.000000
[...]
POINT_DATA 20301
SCALARS P float 1
LOOKUP_TABLE default
 0.000000
 0.020000
 0.040000
 0.060000
 0.080000
 0.100000
 0.120000
 0.140000
 0.160000
 0.180000
 0.200000
 0.220000
 0.240000
 0.260000
 0.280000
 0.300000
 0.320000
 0.340000
 0.360000
 0.380000
 0.400000
 0.420000
 0.440000
 0.460000
 0.480000
 0.500000
 0.520000
 0.540000
 0.560000
 0.580000
 0.600000
 0.620000
 0.640000
 0.660000
 0.680000
 0.700000
 0.720000
 0.740000
 0.760000
 0.780000
 0.800000
 0.820000
 0.840000
 0.860000
 0.880000
 0.900000
 0.920000
 0.940000
 0.960000
 0.980000
 1.000000
 1.020000
 1.040000
 1.060000
 1.080000
 1.100000
 1.120000
 1.140000
 1.160000
 1.180000
 1.200000
 1.220000
 1.240000
 1.260000
 1.280000
 1.300000
 1.320000
 1.340000
 1.360000
 1.380000
 1.400000
 1.420000
 1.440000
 1.460000
 1.480000
 1.500000
 1.520000
 1.540000
 1.560000
 1.580000
 1.600000
 1.620000
 1.640000
 1.660000
 1.680000
 1.700000
 1.720000
 1.740000
 1.760000
 1.780000
 1.800000
 1.820000
 1.840000
 1.860000
 1.880000
 1.900000
 1.920000
 1.940000
 1.960000
 1.980000
 2.000000
 0.000000
 0.020100
 0.040201
 0.060301
 0.080401
 0.100501
 0.120602
 0.140702
 0.160802
 0.180902
 0.201003
 0.221103
 0.241203
 0.261303
 0.281404
 0.301504
 0.321604
 0.341704
 0.361805
 0.381905
 0.402005
 0.422105
 0.442206
 0.462306
 0.482406
 0.502506
 0.522607
 0.542707
 0.562807
 0.582907
 0.603008
 0.623108
 0.643208
 0.663308
 0.683409
 0.703509
 0.723609
 0.743709
 0.763810
 0.783910
 0.804010
 0.824110
 0.844211
 0.864311
 0.884411
 0.904511
 0.924612
 0.944712
 0.964812
 0.984912
 1.005013
 1.025113
 1.045213
 1.065313
 1.085414
 1.105514
 1.125614
 1.145714
 1.165815
 1.185915
 1.206015
 1.226115
 1.246216
 1.266316
 1.286416
 1.306516
 1.326617
 1.346717
 1.366817
 1.386917
 1.407018
 1.427118
 1.447218
 1.467318
 1.487419
 1.507519
 1.527619
 1.547719
 1.567820
 1.587920
 1.608020
 1.628120
 1.648221
 1.668321
 1.688421
 1.708521
 1.728622
 1.748722
 1.768822
 1.788922
 1.809023
 1.829123
 1.849223
 1.869323
 1.889424
 1.909524
 1.929624
 1.949724
 1.969825
 1.989925
 2.010025
 0.000000
 0.020201
 0.040402
 0.060603
 0.080804
 0.101005
 0.121206
 0.141407
 0.161608
 0.181809
 0.202010
 0.222211
 0.242412
 0.262613
 0.282814
 0.303015
 0.323216
 0.343417
 0.363618
 0.383819
 0.404020
 0.424221
 0.444422
 0.464623
 0.484824
 0.505025
 0.525226
 0.545427
 0.565628
 0.585829
 0.606030
 0.626231
 0.646432
 0.666633
 0.686834
 0.707035
 0.727236
 0.747437
 0.767638
 0.787839
 0.808040
 0.828241
 0.848442
 0.868643
 0.888844
 0.909045
 0.929246
 0.949447
 0.969648
 0.989849
 1.010050
 1.030251
 1.050452
 1.070653
 1.090854
 1.111055
 1.131256
 1.151457
 1.171658
 1.191859
 1.212060
 1.232261
 1.252462
 1.272663
 1.292864
 1.313065
 1.333266
 1.353467
 1.373668
 1.393869
 1.414070
 1.434271
 1.454472
 1.474673
 1.494874
 1.515075
 1.535276
 1.555477
 1.575678
 1.595879
 1.616080
 1.636281
 1.656482
 1.676683
 1.696884
 1.717085
 1.737286
 1.757487
 1.777688
 1.797889
 1.818090
 1.838291
 1.858492
 1.878693
 1.898894
 1.919095
 1.939296
 1.959497
 1.979698
 1.999899
 2.020100
 0.000000
 0.020302
 0.040605
 0.060907
 0.081209
 0.101511
 0.121814
 0.142116
 0.162418
 0.182720
 0.203023
 0.223325
 0.243627
 0.263929
 0.284232
 0.304534
 0.324836
 0.345138
 0.365441
 0.385743
 0.406045
 0.426347
 0.446650
 0.466952
 0.487254
 0.507557
 0.527859
 0.548161
 0.568463
 0.588766
 0.609068
 0.629370
 0.649672
 0.669975
 0.690277
 0.710579
 0.730881
 0.751184
 0.771486
 0.791788
 0.812090
 0.832393
 0.852695
 0.872997
 0.893299
 0.913602
 0.933904
 0.954206
 0.974509
 0.994811
 1.015113
 1.035415
 1.055718
 1.076020
 1.096322
 1.116624
 1.136927
 1.157229
 1.177531
 1.197833
 1.218136
 1.238438
 1.258740
 1.279042
 1.299345
 1.319647
 1.339949
 1.360252
 1.380554
 1.400856
 1.421158
 1.441461
 1.461763
 1.482065
 1.502367
 1.522670
 1.542972
 1.563274
 1.583576
 1.603879
 1.624181
 1.644483
 1.664785
 1.685088
 1.705390
 1.725692
 1.745994
 1.766297
 1.786599
 1.806901
 1.827204
 1.847506
 1.867808
 1.888110
 1.908413
 1.928715
 1.949017
 1.969319
 1.989622
 2.009924
 2.030226
 0.000000
 0.020404
 0.040808
 0.061212
 0.081616
 0.102020
 0.122424
 0.142828
 0.163232
 0.183636
 0.204040
 0.224444
 0.244848
 0.265252
 0.285656
 0.306060
 0.326464
 0.346868
 0.367272
 0.387677
 0.408081
 0.428485
 0.448889
 0.469293
 0.489697
 0.510101
 0.530505
 0.550909
 0.571313
 0.591717
 0.612121
 0.632525
 0.652929
 0.673333
 0.693737
 0.714141
 0.734545
 0.754949
 0.775353
 0.795757
 0.816161
 0.836565
 0.856969
 0.877373
 0.897777
 0.918181
 0.938585
 0.958989
 0.979393
 0.999797
 1.020201
 1.040605
 1.061009
 1.081413
 1.101817
 1.122221
 1.142626
 1.163030
 1.183434
 1.203838
 1.224242
 1.244646
 1.265050
 1.285454
 1.305858
 1.326262
 1.346666
 1.367070
 1.387474
 1.407878
 1.428282
 1.448686
 1.469090
 1.489494
 1.509898
 1.530302
 1.550706
 1.571110
 1.591514
 1.611918
 1.632322
 1.652726
 1.673130
 1.693534
 1.713938
 1.734342
 1.754746
 1.775150
 1.795554
 1.815958
 1.836362
 1.856766
 1.877170
 1.897574
 1.917979
 1.938383
 1.958787
 1.979191
 1.999595
 2.019999
 2.040403
 0.000000
 0.020506
 0.041013
 0.061519
 0.082025
 0.102532
 0.123038
 0.143544
 0.164050
 0.184557
 0.205063
 0.225569
 0.246076
 0.266582
 0.287088
 0.307595
 0.328101
 0.348607
 0.369113
 0.389620
 0.410126
 0.430632
 0.451139
 0.471645
 0.492151
 0.512658
 0.533164
 0.553670
 0.574176
 0.594683
 0.615189
 0.635695
 0.656202
 0.676708
 0.697214
 0.717721
 0.738227
 0.758733
 0.779239
 0.799746
 0.820252
 0.840758
 0.861265
 0.881771
 0.902277
 0.922784
 0.943290
 0.963796
 0.984303
 1.004809
 1.025315
 1.045821
 1.066328
 1.086834
 1.107340
 1.127847
 1.148353
 1.168859
 1.189366
 1.209872
 1.230378
 1.250884
 1.271391
 1.291897
 1.312403
 1.332910
 1.353416
 1.373922
 1.394429
 1.414935
 1.435441
 1.455947
 1.476454
 1.496960
 1.517466
 1.537973
 1.558479
 1.578985
 1.599492
 1.619998
 1.640504
 1.661010
 1.681517
 1.702023
 1.722529
 1.743036
 1.763542
 1.784048
 1.804555
 1.825061
 1.845567
 1.866074
 1.886580
 1.907086
 1.927592
 1.948099
 1.968605
 1.989111
 2.009618
 2.030124
 2.050630
 0.000000
 0.020609
 0.041218
 0.061827
 0.082436
 0.103045
 0.123655
 0.144264
 0.164873
 0.185482
 0.206091
 0.226700
 0.247309
 0.267918
 0.288527
 0.309136
 0.329745
 0.350355
 0.370964
 0.391573
 0.412182
 0.432791
 0.453400
 0.474009
 0.494618
 0.515227
 0.535836
 0.556445
 0.577055
 0.597664
 0.618273
 0.638882
 0.659491
 0.680100
 0.700709
 0.721318
 0.741927
 0.762536
 0.783145
 0.803755
 0.824364
 0.844973
 0.865582
 0.886191
 0.906800
 0.927409
 0.948018
 0.968627
 0.989236
 1.009845
 1.030455
 1.051064
 1.071673
 1.092282
 1.112891
 1.133500
 1.154109
 1.174718
 1.195327
 1.215936
 1.236545
 1.257155
 1.277764
 1.298373
 1.318982
 1.339591
 1.360200
 1.380809
 1.401418
 1.422027
 1.442636
 1.463245
 1.483855
 1.504464
 1.525073
 1.545682
 1.566291
 1.586900
 1.607509
 1.628118
 1.648727
 1.669336
 1.689945
 1.710555
 1.731164
 1.751773
 1.772382
 1.792991
 1.813600
 1.834209
 1.854818
 1.875427
 1.896036
 1.916645
 1.937255
 1.957864
 1.978473
 1.999082
 2.019691
 2.040300
 2.060909
 0.000000
 0.020712
 0.041425
 0.062137
 0.082850
 0.103562
 0.124274
 0.144987
 0.165699
 0.186412
 0.207124
 0.227836
 0.248549
 0.269261
 0.289974
 0.310686
 0.331398
 0.352111
 0.372823
 0.393535
 0.414248
 0.434960
 0.455673
 0.476385
 0.497097
 0.517810
 0.538522
 0.559235
 0.579947
 0.600659
 0.621372
 0.642084
 0.662797
 0.683509
 0.704221
 0.724934
 0.745646
 0.766359
 0.787071
 0.807783
 0.828496
 0.849208
 0.869921
 0.890633
 0.911345
 0.932058
 0.952770
 0.973483
 0.994195
 1.014907
 1.035620
 1.056332
 1.077044
 1.097757
 1.118469
 1.139182
 1.159894
 1.180606
 1.201319
 1.222031
 1.242744
 1.263456
 1.284168
 1.304881
 1.325593
 1.346306
 1.367018
 1.387730
 1.408443
 1.429155
 1.449868
 1.470580
 1.491292
 1.512005
 1.532717
 1.553430
 1.574142
 1.594854
 1.615567
 1.636279
 1.656992
 1.677704
 1.698416
 1.719129
 1.739841
 1.760554
 1.781266
 1.801978
 1.822691
 1.843403
 1.864115
 1.884828
 1.905540
 1.926253
 1.946965
 1.967677
 1.988390
 2.009102
 2.029815
 2.050527
 2.071239
 0.000000
 0.020816
 0.041632
 0.062449
 0.083265
 0.104081
 0.124897
 0.145714
 0.166530
 0.187346
 0.208162
 0.228978
 0.249795
 0.270611
 0.291427
 0.312243
 0.333059
 0.353876
 0.374692
 0.395508
 0.416324
 0.437141
 0.457957
 0.478773
 0.499589
 0.520405
 0.541222
 0.562038
 0.582854
 0.603670
 0.624486
 0.645303
 0.666119
 0.686935
 0.707751
 0.728568
 0.749384
 0.770200
 0.791016
 0.811832
 0.832649
 0.853465
 0.874281
 0.895097
 0.915913
 0.936730
 0.957546
 0.978362
 0.999178
 1.019995
 1.040811
 1.061627
 1.082443
 1.103259
 1.124076
 1.144892
 1.165708
 1.186524
 1.207340
 1.228157
 1.248973
 1.269789
 1.290605
 1.311422
 1.332238
 1.353054
 1.373870
 1.394686
 1.415503
 1.436319
 1.457135
 1.477951
 1.498768
 1.519584
 1.540400
 1.561216
 1.582032
 1.602849
 1.623665
 1.644481
 1.665297
 1.686113
 1.706930
 1.727746
 1.748562
 1.769378
 1.790195
 1.811011
 1.831827
 1.852643
 1.873459
 1.894276
 1.915092
 1.935908
 1.956724
 1.977540
 1.998357
 2.019173
 2.039989
 2.060805
 2.081622
 0.000000
 0.020921
 0.041841
 0.062762
 0.083682
 0.104603
 0.125523
 0.146444
 0.167364
 0.188285
 0.209206
 0.230126
 0.251047
 0.271967
 0.292888
 0.313808
 0.334729
 0.355649
 0.376570
 0.397491
 0.418411
 0.439332
 0.460252
 0.481173
 0.502093
 0.523014
 0.543934
 0.564855
 0.585776
 0.606696
 0.627617
 0.648537
 0.669458
 0.690378
 0.711299
 0.732220
 0.753140
 0.774061
 0.794981
 0.815902
 0.836822
 0.857743
 0.878663
 0.899584
 0.920505
 0.941425
 0.962346
 0.983266
 1.004187
 1.025107
 1.046028
 1.066948
 1.087869
 1.108790
 1.129710
 1.150631
 1.171551
 1.192472
 1.213392
 1.234313
 1.255233
 1.276154
 1.297075
 1.317995
 1.338916
 1.359836
 1.380757
 1.401677
 1.422598
 1.443518
 1.464439
 1.485360
 1.506280
 1.527201
 1.548121
 1.569042
 1.589962
 1.610883
 1.631803
 1.652724
 1.673645
 1.694565
 1.715486
 1.736406
 1.757327
 1.778247
 1.799168
 1.820088
 1.841009
 1.861930
 1.882850
 1.903771
 1.924691
 1.945612
 1.966532
 1.987453
 2.008373
 2.029294
 2.050215
 2.071135
 2.092056
 0.000000
 0.021025
 0.042051
 0.063076
 0.084102
 0.105127
 0.126153
 0.147178
 0.168203
 0.189229
 0.210254
 0.231280
 0.252305
 0.273330
 0.294356
 0.315381
 0.336407
 0.357432
 0.378458
 0.399483
 0.420508
 0.441534
 0.462559
 0.483585
 0.504610
 0.525636
 0.546661
 0.567686
 0.588712
 0.609737
 0.630763
 0.651788
 0.672814
 0.693839
 0.714864
 0.735890
 0.756915
 0.777941
 0.798966
 0.819991
 0.841017
 0.862042
 0.883068
 0.904093
 0.925119
 0.946144
 0.967169
 0.988195
 1.009220
 1.030246
 1.051271
 1.072297
 1.093322
 1.114347
 1.135373
 1.156398
 1.177424
 1.198449
 1.219474
 1.240500
 1.261525
 1.282551
 1.303576
 1.324602
 1.345627
 1.366652
 1.387678
 1.408703
 1.429729
 1.450754
 1.471780
 1.492805
 1.513830
 1.534856
 1.555881
 1.576907
 1.597932
 1.618957
 1.639983
 1.661008
 1.682034
 1.703059
 1.724085
 1.745110
 1.766135
 1.787161
 1.808186
 1.829212
 1.850237
 1.871263
 1.892288
 1.913313
 1.934339
 1.955364
 1.976390
 1.997415
 2.018441
 2.039466
 2.060491
 2.081517
 2.102542
 0.000000
 0.021131
 0.042262
 0.063392
 0.084523
 0.105654
 0.126785
 0.147916
 0.169046
 0.190177
 0.211308
 0.232439
 0.253570
 0.274701
 0.295831
 0.316962
 0.338093
 0.359224
 0.380355
 0.401485
 0.422616
 0.443747
 0.464878
 0.486009
 0.507139
 0.528270
 0.549401
 0.570532
 0.591663
 0.612794
 0.633924
 0.655055
 0.676186
 0.697317
 0.718448
 0.739578
 0.760709
 0.781840
 0.802971
 0.824102
 0.845232
 0.866363
 0.887494
 0.908625
 0.929756
 0.950887
 0.972017
 0.993148
 1.014279
 1.035410
 1.056541
 1.077671
 1.098802
 1.119933
 1.141064
 1.162195
 1.183325
 1.204456
 1.225587
 1.246718
 1.267849
 1.288980
 1.310110
 1.331241
 1.352372
 1.373503
 1.394634
 1.415764
 1.436895
 1.458026
 1.479157
 1.500288
 1.521418
 1.542549
 1.563680
 1.584811
 1.605942
 1.627073
 1.648203
 1.669334
 1.690465
 1.711596
 1.732727
 1.753857
 1.774988
 1.796119
 1.817250
 1.838381
 1.859511
 1.880642
 1.901773
 1.922904
 1.944035
 1.965166
 1.986296
 2.007427
 2.028558
 2.049689
 2.070820
 2.091950
 2.113081
 0.000000
 0.021237
 0.042473
 0.063710
 0.084947
 0.106184
 0.127420
 0.148657
 0.169894
 0.191131
 0.212367
 0.233604
 0.254841
 0.276078
 0.297314
 0.318551
 0.339788
 0.361024
 0.382261
 0.403498
 0.424735
 0.445971
 0.467208
 0.488445
 0.509682
 0.530918
 0.552155
 0.573392
 0.594628
 0.615865
 0.637102
 0.658339
 0.679575
 0.700812
 0.722049
 0.743286
 0.764522
 0.785759
 0.806996
 0.828233
 0.849469
 0.870706
 0.891943
 0.913179
 0.934416
 0.955653
 0.976890
 0.998126
 1.019363
 1.040600
 1.061837
 1.083073
 1.104310
 1.125547
 1.146783
 1.168020
 1.189257
 1.210494
 1.231730
 1.252967
 1.274204
 1.295441
 1.316677
 1.337914
 1.359151
 1.380388
 1.401624
 1.422861
 1.444098
 1.465334
 1.486571
 1.507808
 1.529045
 1.550281
 1.571518
 1.592755
 1.613992
 1.635228
 1.656465
 1.677702
 1.698938
 1.720175
 1.741412
 1.762649
 1.783885
 1.805122
 1.826359
 1.847596
 1.868832
 1.890069
 1.911306
 1.932543
 1.953779
 1.975016
 1.996253
 2.017489
 2.038726
 2.059963
 2.081200
 2.102436
 2.123673
 0.000000
 0.021343
 0.042686
 0.064030
 0.085373
 0.106716
 0.128059
 0.149402
 0.170745
 0.192089
 0.213432
 0.234775
 0.256118
 0.277461
 0.298805
 0.320148
 0.341491
 0.362834
 0.384177
 0.405520
 0.426864
 0.448207
 0.469550
 0.490893
 0.512236
 0.533580
 0.554923
 0.576266
 0.597609
 0.618952
 0.640295
 0.661639
 0.682982
 0.704325
 0.725668
 0.747011
 0.768354
 0.789698
 0.811041
 0.832384
 0.853727
 0.875070
 0.896414
 0.917757
 0.939100
 0.960443
 0.981786
 1.003129
 1.024473
 1.045816
 1.067159
 1.088502
 1.109845
 1.131189
 1.152532
 1.173875
 1.195218
 1.216561
 1.237904
 1.259248
 1.280591
 1.301934
 1.323277
 1.344620
 1.365964
 1.387307
 1.408650
 1.429993
 1.451336
 1.472679
 1.494023
 1.515366
 1.536709
 1.558052
 1.579395
 1.600739
 1.622082
 1.643425
 1.664768
 1.686111
 1.707454
 1.728798
 1.750141
 1.771484
 1.792827
 1.814170
 1.835514
 1.856857
 1.878200
 1.899543
 1.920886
 1.942229
 1.963573
 1.984916
 2.006259
 2.027602
 2.048945
 2.070289
 2.091632
 2.112975
 2.134318
 0.000000
 0.021450
 0.042900
 0.064350
 0.085801
 0.107251
 0.128701
 0.150151
 0.171601
 0.193051
 0.214502
 0.235952
 0.257402
 0.278852
 0.300302
 0.321752
 0.343203
 0.364653
 0.386103
 0.407553
 0.429003
 0.450453
 0.471904
 0.493354
 0.514804
 0.536254
 0.557704
 0.579154
 0.600605
 0.622055
 0.643505
 0.664955
 0.686405
 0.707855
 0.729306
 0.750756
 0.772206
 0.793656
 0.815106
 0.836556
 0.858007
 0.879457
 0.900907
 0.922357
 0.943807
 0.965257
 0.986708
 1.008158
 1.029608
 1.051058
 1.072508
 1.093958
 1.115409
 1.136859
 1.158309
 1.179759
 1.201209
 1.222659
 1.244109
 1.265560
 1.287010
 1.308460
 1.329910
 1.351360
 1.372810
 1.394261
 1.415711
 1.437161
 1.458611
 1.480061
 1.501511
 1.522962
 1.544412
 1.565862
 1.587312
 1.608762
 1.630212
 1.651663
 1.673113
 1.694563
 1.716013
 1.737463
 1.758913
 1.780364
 1.801814
 1.823264
 1.844714
 1.866164
 1.887614
 1.909065
 1.930515
 1.951965
 1.973415
 1.994865
 2.016315
 2.037766
 2.059216
 2.080666
 2.102116
 2.123566
 2.145016
 0.000000
 0.021558
 0.043115
 0.064673
 0.086231
 0.107788
 0.129346
 0.150904
 0.172461
 0.194019
 0.215577
 0.237135
 0.258692
 0.280250
 0.301808
 0.323365
 0.344923
 0.366481
 0.388038
 0.409596
 0.431154
 0.452711
 0.474269
 0.495827
 0.517384
 0.538942
 0.560500
 0.582057
 0.603615
 0.625173
 0.646730
 0.668288
 0.689846
 0.711404
 0.732961
 0.754519
 0.776077
 0.797634
 0.819192
 0.840750
 0.862307
 0.883865
 0.905423
 0.926980
 0.948538
 0.970096
 0.991653
 1.013211
 1.034769
 1.056326
 1.077884
 1.099442
 1.121000
 1.142557
 1.164115
 1.185673
 1.207230
 1.228788
 1.250346
 1.271903
 1.293461
 1.315019
 1.336576
 1.358134
 1.379692
 1.401249
 1.422807
 1.444365
 1.465922
 1.487480
 1.509038
 1.530595
 1.552153
 1.573711
 1.595269
 1.616826
 1.638384
 1.659942
 1.681499
 1.703057
 1.724615
 1.746172
 1.767730
 1.789288
 1.810845
 1.832403
 1.853961
 1.875518
 1.897076
 1.918634
 1.940191
 1.961749
 1.983307
 2.004865
 2.026422
 2.047980
 2.069538
 2.091095
 2.112653
 2.134211
 2.155768
 0.000000
 0.021666
 0.043331
 0.064997
 0.086663
 0.108329
 0.129994
 0.151660
 0.173326
 0.194992
 0.216657
 0.238323
 0.259989
 0.281655
 0.303320
 0.324986
 0.346652
 0.368318
 0.389983
 0.411649
 0.433315
 0.454981
 0.476646
 0.498312
 0.519978
 0.541644
 0.563309
 0.584975
 0.606641
 0.628306
 0.649972
 0.671638
 0.693304
 0.714969
 0.736635
 0.758301
 0.779967
 0.801632
 0.823298
 0.844964
 0.866630
 0.888295
 0.909961
 0.931627
 0.953293
 0.974958
 0.996624
 1.018290
 1.039956
 1.061621
 1.083287
 1.104953
 1.126619
 1.148284
 1.169950
 1.191616
 1.213282
 1.234947
 1.256613
 1.278279
 1.299944
 1.321610
 1.343276
 1.364942
 1.386607
 1.408273
 1.429939
 1.451605
 1.473270
 1.494936
 1.516602
 1.538268
 1.559933
 1.581599
 1.603265
 1.624931
 1.646596
 1.668262
 1.689928
 1.711594
 1.733259
 1.754925
 1.776591
 1.798257
 1.819922
 1.841588
 1.863254
 1.884919
 1.906585
 1.928251
 1.949917
 1.971582
 1.993248
 2.014914
 2.036580
 2.058245
 2.079911
 2.101577
 2.123243
 2.144908
 2.166574
 0.000000
 0.021774
 0.043549
 0.065323
 0.087097
 0.108872
 0.130646
 0.152420
 0.174195
 0.195969
 0.217743
 0.239518
 0.261292
 0.283066
 0.304841
 0.326615
 0.348389
 0.370164
 0.391938
 0.413712
 0.435487
 0.457261
 0.479036
 0.500810
 0.522584
 0.544359
 0.566133
 0.587907
 0.609682
 0.631456
 0.653230
 0.675005
 0.696779
 0.718553
 0.740328
 0.762102
 0.783876
 0.805651
 0.827425
 0.849199
 0.870974
 0.892748
 0.914522
 0.936297
 0.958071
 0.979845
 1.001620
 1.023394
 1.045168
 1.066943
 1.088717
 1.110491
 1.132266
 1.154040
 1.175814
 1.197589
 1.219363
 1.241137
 1.262912
 1.284686
 1.306460
 1.328235
 1.350009
 1.371784
 1.393558
 1.415332
 1.437107
 1.458881
 1.480655
 1.502430
 1.524204
 1.545978
 1.567753
 1.589527
 1.611301
 1.633076
 1.654850
 1.676624
 1.698399
 1.720173
 1.741947
 1.763722
 1.785496
 1.807270
 1.829045
 1.850819
 1.872593
 1.894368
 1.916142
 1.937916
 1.959691
 1.981465
 2.003239
 2.025014
 2.046788
 2.068562
 2.090337
 2.112111
 2.133885
 2.155660
 2.177434
 0.000000
 0.021883
 0.043767
 0.065650
 0.087534
 0.109417
 0.131301
 0.153184
 0.175068
 0.196951
 0.218835
 0.240718
 0.262602
 0.284485
 0.306369
 0.328252
 0.350136
 0.372019
 0.393903
 0.415786
 0.437670
 0.459553
 0.481437
 0.503320
 0.525204
 0.547087
 0.568971
 0.590854
 0.612738
 0.634621
 0.656505
 0.678388
 0.700272
 0.722155
 0.744039
 0.765922
 0.787805
 0.809689
 0.831572
 0.853456
 0.875339
 0.897223
 0.919106
 0.940990
 0.962873
 0.984757
 1.006640
 1.028524
 1.050407
 1.072291
 1.094174
 1.116058
 1.137941
 1.159825
 1.181708
 1.203592
 1.225475
 1.247359
 1.269242
 1.291126
 1.313009
 1.334893
 1.356776
 1.378660
 1.400543
 1.422427
 1.444310
 1.466194
 1.488077
 1.509961
 1.531844
 1.553727
 1.575611
 1.597494
 1.619378
 1.641261
 1.663145
 1.685028
 1.706912
 1.728795
 1.750679
 1.772562
 1.794446
 1.816329
 1.838213
 1.860096
 1.881980
 1.903863
 1.925747
 1.947630
 1.969514
 1.991397
 2.013281
 2.035164
 2.057048
 2.078931
 2.100815
 2.122698
 2.144582
 2.166465
 2.188349
 0.000000
 0.021993
 0.043986
 0.065980
 0.087973
 0.109966
 0.131959
 0.153952
 0.175945
 0.197939
 0.219932
 0.241925
 0.263918
 0.285911
 0.307904
 0.329898
 0.351891
 0.373884
 0.395877
 0.417870
 0.439864
 0.461857
 0.483850
 0.505843
 0.527836
 0.549829
 0.571823
 0.593816
 0.615809
 0.637802
 0.659795
 0.681788
 0.703782
 0.725775
 0.747768
 0.769761
 0.791754
 0.813748
 0.835741
 0.857734
 0.879727
 0.901720
 0.923713
 0.945707
 0.967700
 0.989693
 1.011686
 1.033679
 1.055673
 1.077666
 1.099659
 1.121652
 1.143645
 1.165638
 1.187632
 1.209625
 1.231618
 1.253611
 1.275604
 1.297597
 1.319591
 1.341584
 1.363577
 1.385570
 1.407563
 1.429557
 1.451550
 1.473543
 1.495536
 1.517529
 1.539522
 1.561516
 1.583509
 1.605502
 1.627495