# vtk DataFile Version 2.0 
Grid
ASCII
DATASET STRUCTURED_GRID
DIMENSIONS 21 21 1
POINTS 441 float
0.000000 0.000000 0.000000
0.050000 0.000000 0.000000
0.100000 0.000000 0.000000
0.150000 0.000000 0.000000
0.200000 0.000000 0.000000
0.250000 0.000000 0.000000
0.300000 0.000000 0.000000
0.350000 0.000000 0.000000
0.400000 0.000000 0.000000
0.450000 0.000000 0.000000
0.500000 0.000000 0.000000
0.550000 0.000000 0.000000
0.600000 0.000000 0.000000
0.650000 0.000000 0.000000
0.700000 0.000000 0.000000
0.750000 0.000000 0.000000
0.800000 0.000000 0.000000
0.850000 0.000000 0.000000
0.900000 0.000000 0.000000
0.950000 0.000000 0.000000
1.000000 0.000000 0.000000
0.000000 0.050000 0.000000
0.050000 0.050000 0.000000
0.100000 0.050000 0.000000
0.150000 0.050000 0.000000
0.200000 0.050000 0.000000
0.250000 0.050000 0.000000
0.300000 0.050000 0.000000
0.350000 0.050000 0.000000
0.400000 0.050000 0.000000
0.450000 0.050000 0.000000
0.500000 0.050000 0.000000
0.550000 0.050000 0.000000
0.600000 0.050000 0.000000
0.650000 0.050000 0.000000
0.700000 0.050000 0.000000
0.750000 0.050000 0.000000
0.800000 0.050000 0.000000
0.850000 0.050000 0.000000
0.900000 0.050000 0.000000
0.950000 0.050000 0.000000
1.000000 0.050000 0.000000
0.000000 0.100000 0.000000
0.050000 0.100000 0.000000
0.100000 0.100000 0.000000
0.150000 0.100000 0.000000
0.200000 0.100000 0.000000
0.250000 0.100000 0.000000
0.300000 0.100000 0.000000
0.350000 0.100000 0.000000
0.400000 0.100000 0.000000
0.450000 0.100000 0.000000
0.500000 0.100000 0.000000
0.550000 0.100000 0.000000
0.600000 0.100000 0.000000
0.650000 0.100000 0.000000
0.700000 0.100000 0.000000
0.750000 0.100000 0.000000
0.800000 0.100000 0.000000
0.850000 0.100000 0.000000
0.900000 0.100000 0.000000
0.950000 0.100000 0.000000
1.000000 0.100000 0.000000
0.000000 0.150000 0.000000
0.050000 0.150000 0.000000
0.100000 0.150000 0.000000
0.150000 0.150000 0.000000
0.200000 0.150000 0.000000
0.250000 0.150000 0.000000
0.300000 0.150000 0.000000
0.350000 0.150000 0.000000
0.400000 0.150000 0.000000
0.450000 0.150000 0.000000
0.500000 0.150000 0.000000
0.550000 0.150000 0.000000
0.600000 0.150000 0.000000
0.650000 0.150000 0.000000
0.700000 0.150000 0.000000
0.750000 0.150000 0.000000
0.800000 0.150000 0.000000
0.850000 0.150000 0.000000
0.900000 0.150000 0.000000
0.950000 0.150000 0.000000
1.000000 0.150000 0.000000
0.000000 0.200000 0.000000
0.050000 0.200000 0.000000
0.100000 0.200000 0.000000
0.150000 0.200000 0.000000
0.200000 0.200000 0.000000
0.250000 0.200000 0.000000
0.300000 0.200000 0.000000
0.350000 0.200000 0.000000
0.400000 0.200000 0.000000
0.450000 0.200000 0.000000
0.500000 0.200000 0.000000
0.550000 0.200000 0.000000
0.600000 0.200000 0.000000
0.650000 0.200000 0.000000
0.700000 0.200000 0.000000
0.750000 0.200000 0.000000
0.800000 0.200000 0.000000
0.850000 0.200000 0.000000
0.900000 0.200000 0.000000
0.950000 0.200000 0.000000
1.000000 0.200000 0.000000
0.000000 0.250000 0.000000
0.050000 0.250000 0.000000
0.100000 0.250000 0.000000
0.150000 0.250000 0.000000
0.200000 0.250000 0.000000
0.250000 0.250000 0.000000
0.300000 0.250000 0.000000
0.350000 0.250000 0.000000
0.400000 0.250000 0.000000
0.450000 0.250000 0.000000
0.500000 0.250000 0.000000
0.550000 0.250000 0.000000
0.600000 0.250000 0.000000
0.650000 0.250000 0.000000
0.700000 0.250000 0.000000
0.750000 0.250000 0.000000
0.800000 0.250000 0.000000
0.850000 0.250000 0.000000
0.900000 0.250000 0.000000
0.950000 0.250000 0.000000
1.000000 0.250000 0.000000
0.000000 0.300000 0.000000
0.050000 0.300000 0.000000
0.100000 0.300000 0.000000
0.150000 0.300000 0.000000
0.200000 0.300000 0.000000
0.250000 0.300000 0.000000
0.300000 0.300000 0.000000
0.350000 0.300000 0.000000
0.400000 0.300000 0.000000
0.450000 0.300000 0.000000
0.500000 0.300000 0.000000
0.550000 0.300000 0.000000
0.600000 0.300000 0.000000
0.650000 0.300000 0.000000
0.700000 0.300000 0.000000
0.750000 0.300000 0.000000
0.800000 0.300000 0.000000
0.850000 0.300000 0.000000
0.900000 0.300000 0.000000
0.950000 0.300000 0.000000
1.000000 0.300000 0.000000
0.000000 0.350000 0.000000
0.050000 0.350000 0.000000
0.100000 0.350000 0.000000
0.150000 0.350000 0.000000
0.200000 0.350000 0.000000
0.250000 0.350000 0.000000
0.300000 0.350000 0.000000
0.350000 0.350000 0.000000
0.400000 0.350000 0.000000
0.450000 0.350000 0.000000
0.500000 0.350000 0.000000
0.550000 0.350000 0.000000
0.600000 0.350000 0.000000
0.650000 0.350000 0.000000
0.700000 0.350000 0.000000
0.750000 0.350000 0.000000
0.800000 0.350000 0.000000
0.850000 0.350000 0.000000
0.900000 0.350000 0.000000
0.950000 0.350000 0.000000
1.000000 0.350000 0.000000
0.000000 0.400000 0.000000
0.050000 0.400000 0.000000
0.100000 0.400000 0.000000
0.150000 0.400000 0.000000
0.200000 0.400000 0.000000
0.250000 0.400000 0.000000
0.300000 0.400000 0.000000
0.350000 0.400000 0.000000
0.400000 0.400000 0.000000
0.450000 0.400000 0.000000
0.500000 0.400000 0.000000
0.550000 0.400000 0.000000
0.600000 0.400000 0.000000
0.650000 0.400000 0.000000
0.700000 0.400000 0.000000
0.750000 0.400000 0.000000
0.800000 0.400000 0.000000
0.850000 0.400000 0.000000
0.900000 0.400000 0.000000
0.950000 0.400000 0.000000
1.000000 0.400000 0.000000
0.000000 0.450000 0.000000
0.050000 0.450000 0.000000
0.100000 0.450000 0.000000
0.150000 0.450000 0.000000
0.200000 0.450000 0.000000
0.250000 0.450000 0.000000
0.300000 0.450000 0.000000
0.350000 0.450000 0.000000
0.400000 0.450000 0.000000
0.450000 0.450000 0.000000
0.500000 0.450000 0.000000
0.550000 0.450000 0.000000
0.600000 0.450000 0.000000
0.650000 0.450000 0.000000
0.700000 0.450000 0.000000
0.750000 0.450000 0.000000
0.800000 0.450000 0.000000
0.850000 0.450000 0.000000
0.900000 0.450000 0.000000
0.950000 0.450000 0.000000
1.000000 0.450000 0.000000
0.000000 0.500000 0.000000
0.050000 0.500000 0.000000
0.100000 0.500000 0.000000
0.150000 0.500000 0.000000
0.200000 0.500000 0.000000
0.250000 0.500000 0.000000
0.300000 0.500000 0.000000
0.350000 0.500000 0.000000
0.400000 0.500000 0.000000
0.450000 0.500000 0.000000
0.500000 0.500000 0.000000
0.550000 0.500000 0.000000
0.600000 0.500000 0.000000
0.650000 0.500000 0.000000
0.700000 0.500000 0.000000
0.750000 0.500000 0.000000
0.800000 0.500000 0.000000
0.850000 0.500000 0.000000
0.900000 0.500000 0.000000
0.950000 0.500000 0.000000
1.000000 0.500000 0.000000
0.000000 0.550000 0.000000
0.050000 0.550000 0.000000
0.100000 0.550000 0.000000
0.150000 0.550000 0.000000
0.200000 0.550000 0.000000
0.250000 0.550000 0.000000
0.300000 0.550000 0.000000
0.350000 0.550000 0.000000
0.400000 0.550000 0.000000
0.450000 0.550000 0.000000
0.500000 0.550000 0.000000
0.550000 0.550000 0.000000
0.600000 0.550000 0.000000
0.650000 0.550000 0.000000
0.700000 0.550000 0.000000
0.750000 0.550000 0.000000
0.800000 0.550000 0.000000
0.850000 0.550000 0.000000
0.900000 0.550000 0.000000
0.950000 0.550000 0.000000
1.000000 0.550000 0.000000
0.000000 0.600000 0.000000
0.050000 0.600000 0.000000
0.100000 0.600000 0.000000
0.150000 0.600000 0.000000
0.200000 0.600000 0.000000
0.250000 0.600000 0.000000
0.300000 0.600000 0.000000
0.350000 0.600000 0.000000
0.400000 0.600000 0.000000
0.450000 0.600000 0.000000
0.500000 0.600000 0.000000
0.550000 0.600000 0.000000
0.600000 0.600000 0.000000
0.650000 0.600000 0.000000
0.700000 0.600000 0.000000
0.750000 0.600000 0.000000
0.800000 0.600000 0.000000
0.850000 0.600000 0.000000
0.900000 0.600000 0.000000
0.950000 0.600000 0.000000
1.000000 0.600000 0.000000
0.000000 0.650000 0.000000
0.050000 0.650000 0.000000
0.100000 0.650000 0.000000
0.150000 0.650000 0.000000
0.200000 0.650000 0.000000
0.250000 0.650000 0.000000
0.300000 0.650000 0.000000
0.350000 0.650000 0.000000
0.400000 0.650000 0.000000
0.450000 0.650000 0.000000
0.500000 0.650000 0.000000
0.550000 0.650000 0.000000
0.600000 0.650000 0.000000
0.650000 0.650000 0.000000
0.700000 0.650000 0.000000
0.750000 0.650000 0.000000
0.800000 0.650000 0.000000
0.850000 0.650000 0.000000
0.900000 0.650000 0.000000
0.950000 0.650000 0.000000
1.000000 0.650000 0.000000
0.000000 0.700000 0.000000
0.050000 0.700000 0.000000
0.100000 0.700000 0.000000
0.150000 0.700000 0.000000
0.200000 0.700000 0.000000
0.250000 0.700000 0.000000
0.300000 0.700000 0.000000
0.350000 0.700000 0.000000
0.400000 0.700000 0.000000
0.450000 0.700000 0.000000
0.500000 0.700000 0.000000
0.550000 0.700000 0.000000
0.600000 0.700000 0.000000
0.650000 0.700000 0.000000
0.700000 0.700000 0.000000
0.750000 0.700000 0.000000
0.800000 0.700000 0.000000
0.850000 0.700000 0.000000
0.900000 0.700000 0.000000
0.950000 0.700000 0.000000
1.000000 0.700000 0.000000
0.000000 0.750000 0.000000
0.050000 0.750000 0.000000
0.100000 0.750000 0.000000
0.150000 0.750000 0.000000
0.200000 0.750000 0.000000
0.250000 0.750000 0.000000
0.300000 0.750000 0.000000
0.350000 0.750000 0.000000
0.400000 0.750000 0.000000
0.450000 0.750000 0.000000
0.500000 0.750000 0.000000
0.550000 0.750000 0.000000
0.600000 0.750000 0.000000
0.650000 0.750000 0.000000
0.700000 0.750000 0.000000
0.750000 0.750000 0.000000
0.800000 0.750000 0.000000
0.850000 0.750000 0.000000
0.900000 0.750000 0.000000
0.950000 0.750000 0.000000
1.000000 0.750000 0.000000
0.000000 0.800000 0.000000
0.050000 0.800000 0.000000
0.100000 0.800000 0.000000
0.150000 0.800000 0.000000
0.200000 0.800000 0.000000
0.250000 0.800000 0.000000
0.300000 0.800000 0.000000
0.350000 0.800000 0.000000
0.400000 0.800000 0.000000
0.450000 0.800000 0.000000
0.500000 0.800000 0.000000
0.550000 0.800000 0.000000
0.600000 0.800000 0.000000
0.650000 0.800000 0.000000
0.700000 0.800000 0.000000
0.750000 0.800000 0.000000
0.800000 0.800000 0.000000
0.850000 0.800000 0.000000
0.900000 0.800000 0.000000
0.950000 0.800000 0.000000
1.000000 0.800000 0.000000
0.000000 0.850000 0.000000
0.050000 0.850000 0.000000
0.100000 0.850000 0.000000
0.150000 0.850000 0.000000
0.200000 0.850000 0.000000
0.250000 0.850000 0.000000
0.300000 0.850000 0.000000
0.350000 0.850000 0.000000
0.400000 0.850000 0.000000
0.450000 0.850000 0.000000
0.500000 0.850000 0.000000
0.550000 0.850000 0.000000
0.600000 0.850000 0.000000
0.650000 0.850000 0.000000
0.700000 0.850000 0.000000
0.750000 0.850000 0.000000
0.800000 0.850000 0.000000
0.850000 0.850000 0.000000
0.900000 0.850000 0.000000
0.950000 0.850000 0.000000
1.000000 0.850000 0.000000
0.000000 0.900000 0.000000
0.050000 0.900000 0.000000
0.100000 0.900000 0.000000
0.150000 0.900000 0.000000
0.200000 0.900000 0.000000
0.250000 0.900000 0.000000
0.300000 0.900000 0.000000
0.350000 0.900000 0.000000
0.400000 0.900000 0.000000
0.450000 0.900000 0.000000
0.500000 0.900000 0.000000
0.550000 0.900000 0.000000
0.600000 0.900000 0.000000
0.650000 0.900000 0.000000
0.700000 0.900000 0.000000
0.750000 0.900000 0.000000
0.800000 0.900000 0.000000
0.850000 0.900000 0.000000
0.900000 0.900000 0.000000
0.950000 0.900000 0.000000
1.000000 0.900000 0.000000
0.000000 0.950000 0.000000
0.050000 0.950000 0.000000
0.100000 0.950000 0.000000
0.150000 0.950000 0.000000
0.200000 0.950000 0.000000
0.250000 0.950000 0.000000
0.300000 0.950000 0.000000
0.350000 0.950000 0.000000
0.400000 0.950000 0.000000
0.450000 0.950000 0.000000
0.500000 0.950000 0.000000
0.550000 0.950000 0.000000
0.600000 0.950000 0.000000
0.650000 0.950000 0.000000
0.700000 0.950000 0.000000
0.750000 0.950000 0.000000
0.800000 0.950000 0.000000
0.850000 0.950000 0.000000
0.900000 0.950000 0.000000
0.950000 0.950000 0.000000
1.000000 0.950000 0.000000
0.000000 1.000000 0.000000
0.050000 1.000000 0.000000
0.100000 1.000000 0.000000
0.150000 1.000000 0.000000
0.200000 1.000000 0.000000
0.250000 1.000000 0.000000
0.300000 1.000000 0.000000
0.350000 1.000000 0.000000
0.400000 1.000000 0.000000
0.450000 1.000000 0.000000
0.500000 1.000000 0.000000
0.550000 1.000000 0.000000
0.600000 1.000000 0.000000
0.650000 1.000000 0.000000
0.700000 1.000000 0.000000
0.750000 1.000000 0.000000
0.800000 1.000000 0.000000
0.850000 1.000000 0.000000
0.900000 1.000000 0.000000
0.950000 1.000000 0.000000
1.000000 1.000000 0.000000
POINT_DATA 441
SCALARS P float 1
LOOKUP_TABLE default
 0.000000
 0.000000
 0.000000
 0.000000
 0.000000
 0.000000
 0.000000
 0.000000
 0.000000
 0.000000
 0.000000
 0.000000
 0.000000
 0.000000
 0.000000
 0.000000
 0.000000
 0.000000
 0.000000
 0.000000
 0.000000
 0.000000
 -0.000862
 -0.001475
 -0.001936
 -0.002292
 -0.002568
 -0.002779
 -0.002936
 -0.003044
 -0.003107
 -0.003128
 -0.003107
 -0.003044
 -0.002936
 -0.002779
 -0.002568
 -0.002292
 -0.001936
 -0.001475
 -0.000862
 0.000000
 0.000000
 -0.001475
 -0.002600
 -0.003476
 -0.004163
 -0.004701
 -0.005114
 -0.005421
 -0.005633
 -0.005757
 -0.005798
 -0.005757
 -0.005633
 -0.005421
 -0.005114
 -0.004701
 -0.004163
 -0.003476
 -0.002600
 -0.001475
 0.000000
 0.000000
 -0.001936
 -0.003476
 -0.004705
 -0.005684
 -0.006457
 -0.007055
 -0.007501
 -0.007809
 -0.007990
 -0.008049
 -0.007990
 -0.007809
 -0.007501
 -0.007055
 -0.006457
 -0.005684
 -0.004705
 -0.003476
 -0.001936
 0.000000
 0.000000
 -0.002292
 -0.004163
 -0.005684
 -0.006911
 -0.007889
 -0.008649
 -0.009218
 -0.009612
 -0.009844
 -0.009920
 -0.009844
 -0.009612
 -0.009218
 -0.008649
 -0.007889
 -0.006911
 -0.005684
 -0.004163
 -0.002292
 0.000000
 0.000000
 -0.002568
 -0.004701
 -0.006457
 -0.007889
 -0.009037
 -0.009935
 -0.010609
 -0.011077
 -0.011353
 -0.011444
 -0.011353
 -0.011077
 -0.010609
 -0.009935
 -0.009037
 -0.007889
 -0.006457
 -0.004701
 -0.002568
 0.000000
 0.000000
 -0.002779
 -0.005114
 -0.007055
 -0.008649
 -0.009935
 -0.010945
 -0.011706
 -0.012235
 -0.012548
 -0.012651
 -0.012548
 -0.012235
 -0.011706
 -0.010945
 -0.009935
 -0.008649
 -0.007055
 -0.005114
 -0.002779
 0.000000
 0.000000
 -0.002936
 -0.005421
 -0.007501
 -0.009218
 -0.010609
 -0.011706
 -0.012533
 -0.013110
 -0.013451
 -0.013564
 -0.013451
 -0.013110
 -0.012533
 -0.011706
 -0.010609
 -0.009218
 -0.007501
 -0.005421
 -0.002936
 0.000000
 0.000000
 -0.003044
 -0.005633
 -0.007809
 -0.009612
 -0.011077
 -0.012235
 -0.013110
 -0.013722
 -0.014083
 -0.014203
 -0.014083
 -0.013722
 -0.013110
 -0.012235
 -0.011077
 -0.009612
 -0.007809
 -0.005633
 -0.003044
 0.000000
 0.000000
 -0.003107
 -0.005757
 -0.007990
 -0.009844
 -0.011353
 -0.012548
 -0.013451
 -0.014083
 -0.014457
 -0.014580
 -0.014457
 -0.014083
 -0.013451
 -0.012548
 -0.011353
 -0.009844
 -0.007990
 -0.005757
 -0.003107
 0.000000
 0.000000
 -0.003128
 -0.005798
 -0.008049
 -0.009920
 -0.011444
 -0.012651
 -0.013564
 -0.014203
 -0.014580
 -0.014705
 -0.014580
 -0.014203
 -0.013564
 -0.012651
 -0.011444
 -0.009920
 -0.008049
 -0.005798
 -0.003128
 0.000000
 0.000000
 -0.003107
 -0.005757
 -0.007990
 -0.009844
 -0.011353
 -0.012548
 -0.013451
 -0.014083
 -0.014457
 -0.014580
 -0.014457
 -0.014083
 -0.013451
 -0.012548
 -0.011353
 -0.009844
 -0.007990
 -0.005757
 -0.003107
 0.000000
 0.000000
 -0.003044
 -0.005633
 -0.007809
 -0.009612
 -0.011077
 -0.012235
 -0.013110
 -0.013722
 -0.014083
 -0.014203
 -0.014083
 -0.013722
 -0.013110
 -0.012235
 -0.011077
 -0.009612
 -0.007809
 -0.005633
 -0.003044
 0.000000
 0.000000
 -0.002936
 -0.005421
 -0.007501
 -0.009218
 -0.010609
 -0.011706
 -0.012533
 -0.013110
 -0.013451
 -0.013564
 -0.013451
 -0.013110
 -0.012533
 -0.011706
 -0.010609
 -0.009218
 -0.007501
 -0.005421
 -0.002936
 0.000000
 0.000000
 -0.002779
 -0.005114
 -0.007055
 -0.008649
 -0.009935
 -0.010945
 -0.011706
 -0.012235
 -0.012548
 -0.012651
 -0.012548
 -0.012235
 -0.011706
 -0.010945
 -0.009935
 -0.008649
 -0.007055
 -0.005114
 -0.002779
 0.000000
 0.000000
 -0.002568
 -0.004701
 -0.006457
 -0.007889
 -0.009037
 -0.009935
 -0.010609
 -0.011077
 -0.011353
 -0.011444
 -0.011353
 -0.011077
 -0.010609
 -0.009935
 -0.009037
 -0.007889
 -0.006457
 -0.004701
 -0.002568
 0.000000
 0.000000
 -0.002292
 -0.004163
 -0.005684
 -0.006911
 -0.007889
 -0.008649
 -0.009218
 -0.009612
 -0.009844
 -0.009920
 -0.009844
 -0.009612
 -0.009218
 -0.008649
 -0.007889
 -0.006911
 -0.005684
 -0.004163
 -0.002292
 0.000000
 0.000000
 -0.001936
 -0.003476
 -0.004705
 -0.005684
 -0.006457
 -0.007055
 -0.007501
 -0.007809
 -0.007990
 -0.008049
 -0.007990
 -0.007809
 -0.007501
 -0.007055
 -0.006457
 -0.005684
 -0.004705
 -0.003476
 -0.001936
 0.000000
 0.000000
 -0.001475
 -0.002600
 -0.003476
 -0.004163
 -0.004701
 -0.005114
 -0.005421
 -0.005633
 -0.005757
 -0.005798
 -0.005757
 -0.005633
 -0.005421
 -0.005114
 -0.004701
 -0.004163
 -0.003476
 -0.002600
 -0.001475
 0.000000
 0.000000
 -0.000862
 -0.001475
 -0.001936
 -0.002292
 -0.002568
 -0.002779
 -0.002936
 -0.003044
 -0.003107
 -0.003128
 -0.003107
 -0.003044
 -0.002936
 -0.002779
 -0.002568
 -0.002292
 -0.001936
 -0.001475
 -0.000862
 0.000000
 0.000000
 0.000000
 0.000000
 0.000000
 0.000000
 0.000000
 0.000000
 0.000000
 0.000000
 0.000000
 0.000000
 0.000000
 0.000000
 0.000000
 0.000000
 0.000000
 0.000000
 0.000000
 0.000000
 0.000000
 0.000000
