# vtk DataFile Version 2.0 
Grid
ASCII
DATASET STRUCTURED_GRID
DIMENSIONS 101 101 1
POINTS 10201 float
0.000000 0.000000 0.000000
0.010000 0.000000 0.000000
0.020000 0.000000 0.000000
0.030000 0.000000 0.000000
0.040000 0.000000 0.000000
0.050000 0.000000 0.000000
0.060000 0.000000 0.000000
0.070000 0.000000 0.000000
0.080000 0.000000 0.000000
0.090000 0.000000 0.000000
0.100000 0.000000 0.000000
0.110000 0.000000 0.000000
0.120000 0.000000 0.000000
0.130000 0.000000 0.000000
0.140000 0.000000 0.000000
0.150000 0.000000 0.000000
0.160000 0.000000 0.000000
0.170000 0.000000 0.000000
0.180000 0.000000 0.000000
0.190000 0.000000 0.000000
0.200000 0.000000 0.000000
0.210000 0.000000 0.000000
0.220000 0.000000 0.000000
0.230000 0.000000 0.000000
0.240000 0.000000 0.000000
0.250000 0.000000 0.000000
0.260000 0.000000 0.000000
0.270000 0.000000 0.000000
0.280000 0.000000 0.000000
0.290000 0.000000 0.000000
0.300000 0.000000 0.000000
0.310000 0.000000 0.000000
0.320000 0.000000 0.000000
0.330000 0.000000 0.000000
0.340000 0.000000 0.000000
0.350000 0.000000 0.000000
0.360000 0.000000 0.000000
0.370000 0.000000 0.000000
0.380000 0.000000 0.000000
0.390000 0.000000 0.000000
0.400000 0.000000 0.000000
0.410000 0.000000 0.000000
0.420000 0.000000 0.000000
0.430000 0.000000 0.000000
0.440000 0.000000 0.000000
0.450000 0.000000 0.000000
0.460000 0.000000 0.000000
0.470000 0.000000 0.000000
0.480000 0.000000 0.000000
0.490000 0.000000 0.000000
0.500000 0.000000 0.000000
0.510000 0.000000 0.000000
0.520000 0.000000 0.000000
0.530000 0.000000 0.000000
0.540000 0.000000 0.000000
0.550000 0.000000 0.000000
0.560000 0.000000 0.000000
0.570000 0.000000 0.000000
0.580000 0.000000 0.000000
0.590000 0.000000 0.000000
0.600000 0.000000 0.000000
0.610000 0.000000 0.000000
0.620000 0.000000 0.000000
0.630000 0.000000 0.000000
0.640000 0.000000 0.000000
0.650000 0.000000 0.000000
0.660000 0.000000 0.000000
0.670000 0.000000 0.000000
0.680000 0.000000 0.000000
0.690000 0.000000 0.000000
0.700000 0.000000 0.000000
0.710000 0.000000 0.000000
0.720000 0.000000 0.000000
0.730000 0.000000 0.000000
0.740000 0.000000 0.000000
0.750000 0.000000 0.000000
0.760000 0.000000 0.000000
0.770000 0.000000 0.000000
0.780000 0.000000 0.000000
0.790000 0.000000 0.000000
0.800000 0.000000 0.000000
0.810000 0.000000 0.000000
0.820000 0.000000 0.000000
0.830000 0.000000 0.000000
0.840000 0.000000 0.000000
0.850000 0.000000 0.000000
0.860000 0.000000 0.000000
0.870000 0.000000 0.000000
0.880000 0.000000 0.000000
0.890000 0.000000 0.000000
0.900000 0.000000 0.000000
0.910000 0.000000 0.000000
0.920000 0.000000 0.000000
0.930000 0.000000 0.000000
0.940000 0.000000 0.000000
0.950000 0.000000 0.000000
0.960000 0.000000 0.000000
0.970000 0.000000 0.000000
0.980000 0.000000 0.000000
0.990000 0.000000 0.000000
1.000000 0.000000 0.000000
0.000000 0.010000 0.000000
0.010000 0.010000 0.000000
0.020000 0.010000 0.000000
0.030000 0.010000 0.000000
0.040000 0.010000 0.000000
0.050000 0.010000 0.000000
0.060000 0.010000 0.000000
0.070000 0.010000 0.000000
0.080000 0.010000 0.000000
0.090000 0.010000 0.000000
0.100000 0.010000 0.000000
0.110000 0.010000 0.000000
0.120000 0.010000 0.000000
0.130000 0.010000 0.000000
0.140000 0.010000 0.000000
0.150000 0.010000 0.000000
0.160000 0.010000 0.000000
0.170000 0.010000 0.000000
0.180000 0.010000 0.000000
0.190000 0.010000 0.000000
0.200000 0.010000 0.000000
0.210000 0.010000 0.000000
0.220000 0.010000 0.000000
0.230000 0.010000 0.000000
0.240000 0.010000 0.000000
0.250000 0.010000 0.000000
0.260000 0.010000 0.000000
0.270000 0.010000 0.000000
0.280000 0.010000 0.000000
0.290000 0.010000 0.000000
0.300000 0.010000 0.000000
0.310000 0.010000 0.000000
0.320000 0.010000 0.000000
0.330000 0.010000 0.000000
0.340000 0.010000 0.000000
0.350000 0.010000 0.000000
0.360000 0.010000 0.000000
0.370000 0.010000 0.000000
0.380000 0.010000 0.000000
0.390000 0.010000 0.000000
0.400000 0.010000 0.000000
0.410000 0.010000 0.000000
0.420000 0.010000 0.000000
0.430000 0.010000 0.000000
0.440000 0.010000 0.000000
0.450000 0.010000 0.000000
0.460000 0.010000 0.000000
0.470000 0.010000 0.000000
0.480000 0.010000 0.000000
0.490000 0.010000 0.000000
0.500000 0.010000 0.000000
0.510000 0.010000 0.000000
0.520000 0.010000 0.000000
0.530000 0.010000 0.000000
0.540000 0.010000 0.000000
0.550000 0.010000 0.000000
0.560000 0.010000 0.000000
0.570000 0.010000 0.000000
0.580000 0.010000 0.000000
0.590000 0.010000 0.000000
0.600000 0.010000 0.000000
0.610000 0.010000 0.000000
0.620000 0.010000 0.000000
0.630000 0.010000 0.000000
0.640000 0.010000 0.000000
0.650000 0.010000 0.000000
0.660000 0.010000 0.000000
0.670000 0.010000 0.000000
0.680000 0.010000 0.000000
0.690000 0.010000 0.000000
0.700000 0.010000 0.000000
0.710000 0.010000 0.000000
0.720000 0.010000 0.000000
0.730000 0.010000 0.000000
0.740000 0.010000 0.000000
0.750000 0.010000 0.000000
0.760000 0.010000 0.000000
0.770000 0.010000 0.000000
0.780000 0.010000 0.000000
0.790000 0.010000 0.000000
0.800000 0.010000 0.000000
0.810000 0.010000 0.000000
0.820000 0.010000 0.000000
0.830000 0.010000 0.000000
0.840000 0.010000 0.000000
0.850000 0.010000 0.000000
0.860000 0.010000 0.000000
0.870000 0.010000 0.000000
0.880000 0.010000 0.000000
0.890000 0.010000 0.000000
0.900000 0.010000 0.000000
0.910000 0.010000 0.000000
0.920000 0.010000 0.000000
0.930000 0.010000 0.000000
0.940000 0.010000 0.000000
0.950000 0.010000 0.000000
0.960000 0.010000 0.000000
0.970000 0.010000 0.000000
0.980000 0.010000 0.000000
0.990000 0.010000 0.000000
1.000000 0.010000 0.000000
0.000000 0.020000 0.000000
0.010000 0.020000 0.000000
0.020000 0.020000 0.000000
0.030000 0.020000 0.000000
0.040000 0.020000 0.000000
0.050000 0.020000 0.000000
0.060000 0.020000 0.000000
0.070000 0.020000 0.000000
0.080000 0.020000 0.000000
0.090000 0.020000 0.000000
0.100000 0.020000 0.000000
0.110000 0.020000 0.000000
0.120000 0.020000 0.000000
0.130000 0.020000 0.000000
0.140000 0.020000 0.000000
0.150000 0.020000 0.000000
0.160000 0.020000 0.000000
0.170000 0.020000 0.000000
0.180000 0.020000 0.000000
0.190000 0.020000 0.000000
0.200000 0.020000 0.000000
0.210000 0.020000 0.000000
0.220000 0.020000 0.000000
0.230000 0.020000 0.000000
0.240000 0.020000 0.000000
0.250000 0.020000 0.000000
0.260000 0.020000 0.000000
0.270000 0.020000 0.000000
0.280000 0.020000 0.000000
0.290000 0.020000 0.000000
0.300000 0.020000 0.000000
0.310000 0.020000 0.000000
0.320000 0.020000 0.000000
0.330000 0.020000 0.000000
0.340000 0.020000 0.000000
0.350000 0.020000 0.000000
0.360000 0.020000 0.000000
0.370000 0.020000 0.000000
0.380000 0.020000 0.000000
0.390000 0.020000 0.000000
0.400000 0.020000 0.000000
0.410000 0.020000 0.000000
0.420000 0.020000 0.000000
0.430000 0.020000 0.000000
0.440000 0.020000 0.000000
0.450000 0.020000 0.000000
0.460000 0.020000 0.000000
0.470000 0.020000 0.000000
0.480000 0.020000 0.000000
0.490000 0.020000 0.000000
0.500000 0.020000 0.000000
0.510000 0.020000 0.000000
0.520000 0.020000 0.000000
0.530000 0.020000 0.000000
0.540000 0.020000 0.000000
0.550000 0.020000 0.000000
0.560000 0.020000 0.000000
0.570000 0.020000 0.000000
0.580000 0.020000 0.000000
0.590000 0.020000 0.000000
0.600000 0.020000 0.000000
0.610000 0.020000 0.000000
0.620000 0.020000 0.000000
0.630000 0.020000 0.000000
0.640000 0.020000 0.000000
0.650000 0.020000 0.000000
0.660000 0.020000 0.000000
0.670000 0.020000 0.000000
0.680000 0.020000 0.000000
0.690000 0.020000 0.000000
0.700000 0.020000 0.000000
0.710000 0.020000 0.000000
0.720000 0.020000 0.000000
0.730000 0.020000 0.000000
0.740000 0.020000 0.000000
0.750000 0.020000 0.000000
0.760000 0.020000 0.000000
0.770000 0.020000 0.000000
0.780000 0.020000 0.000000
0.790000 0.020000 0.000000
0.800000 0.020000 0.000000
0.810000 0.020000 0.000000
0.820000 0.020000 0.000000
0.830000 0.020000 0.000000
0.840000 0.020000 0.000000
0.850000 0.020000 0.000000
0.860000 0.020000 0.000000
0.870000 0.020000 0.000000
0.880000 0.020000 0.000000
0.890000 0.020000 0.000000
0.900000 0.020000 0.000000
0.910000 0.020000 0.000000
0.920000 0.020000 0.000000
0.930000 0.020000 0.000000
0.940000 0.020000 0.000000
0.950000 0.020000 0.000000
0.960000 0.020000 0.000000
0.970000 0.020000 0.000000
0.980000 0.020000 0.000000
0.990000 0.020000 0.000000
1.000000 0.020000 0.000000
0.000000 0.030000 0.000000
0.010000 0.030000 0.000000
0.020000 0.030000 0.000000
0.030000 0.030000 0.000000
0.040000 0.030000 0.000000
0.050000 0.030000 0.000000
0.060000 0.030000 0.000000
0.070000 0.030000 0.000000
0.080000 0.030000 0.000000
0.090000 0.030000 0.000000
0.100000 0.030000 0.000000
0.110000 0.030000 0.000000
0.120000 0.030000 0.000000
0.130000 0.030000 0.000000
0.140000 0.030000 0.000000
0.150000 0.030000 0.000000
0.160000 0.030000 0.000000
0.170000 0.030000 0.000000
0.180000 0.030000 0.000000
0.190000 0.030000 0.000000
0.200000 0.030000 0.000000
0.210000 0.030000 0.000000
0.220000 0.030000 0.000000
0.230000 0.030000 0.000000
0.240000 0.030000 0.000000
0.250000 0.030000 0.000000
0.260000 0.030000 0.000000
0.270000 0.030000 0.000000
0.280000 0.030000 0.000000
0.290000 0.030000 0.000000
0.300000 0.030000 0.000000
0.310000 0.030000 0.000000
0.320000 0.030000 0.000000
0.330000 0.030000 0.000000
0.340000 0.030000 0.000000
0.350000 0.030000 0.000000
0.360000 0.030000 0.000000
0.370000 0.030000 0.000000
0.380000 0.030000 0.000000
0.390000 0.030000 0.000000
0.400000 0.030000 0.000000
0.410000 0.030000 0.000000
0.420000 0.030000 0.000000
0.430000 0.030000 0.000000
0.440000 0.030000 0.000000
0.450000 0.030000 0.000000
0.460000 0.030000 0.000000
0.470000 0.030000 0.000000
0.480000 0.030000 0.000000
0.490000 0.030000 0.000000
0.500000 0.030000 0.000000
0.510000 0.030000 0.000000
0.520000 0.030000 0.000000
0.530000 0.030000 0.000000
0.540000 0.030000 0.000000
0.550000 0.030000 0.000000
0.560000 0.030000 0.000000
0.570000 0.030000 0.000000
0.580000 0.030000 0.000000
0.590000 0.030000 0.000000
0.600000 0.030000 0.000000
0.610000 0.030000 0.000000
0.620000 0.030000 0.000000
[...]
POINT_DATA 10201
SCALARS P float 1
LOOKUP_TABLE default
 0.000000
 0.000000
 0.000000
 0.000000
 0.000000
 0.000000
 0.000000
 0.000000
 0.000000
 0.000000
 0.000000
 0.000000
 0.000000
 0.000000
 0.000000
 0.000000
 0.000000
 0.000000
 0.000000
 0.000000
 0.000000
 0.000000
 0.000000
 0.000000
 0.000000
 0.000000
 0.000000
 0.000000
 0.000000
 0.000000
 0.000000
 0.000000
 0.000000
 0.000000
 0.000000
 0.000000
 0.000000
 0.000000
 0.000000
 0.000000
 0.000000
 0.000000
 0.000000
 0.000000
 0.000000
 0.000000
 0.000000
 0.000000
 0.000000
 0.000000
 0.000000
 0.000000
 0.000000
 0.000000
 0.000000
 0.000000
 0.000000
 0.000000
 0.000000
 0.000000
 0.000000
 0.000000
 0.000000
 0.000000
 0.000000
 0.000000
 0.000000
 0.000000
 0.000000
 0.000000
 0.000000
 0.000000
 0.000000
 0.000000
 0.000000
 0.000000
 0.000000
 0.000000
 0.000000
 0.000000
 0.000000
 0.000000
 0.000000
 0.000000
 0.000000
 0.000000
 0.000000
 0.000000
 0.000000
 0.000000
 0.000000
 0.000000
 0.000000
 0.000000
 0.000000
 0.000000
 0.000000
 0.000000
 0.000000
 0.000000
 0.000000
 0.000000
 -0.000055
 -0.000100
 -0.000139
 -0.000173
 -0.000205
 -0.000234
 -0.000260
 -0.000285
 -0.000309
 -0.000331
 -0.000352
 -0.000371
 -0.000390
 -0.000407
 -0.000424
 -0.000440
 -0.000454
 -0.000469
 -0.000482
 -0.000495
 -0.000507
 -0.000519
 -0.000530
 -0.000540
 -0.000550
 -0.000560
 -0.000568
 -0.000577
 -0.000585
 -0.000592
 -0.000599
 -0.000606
 -0.000612
 -0.000618
 -0.000623
 -0.000629
 -0.000633
 -0.000637
 -0.000641
 -0.000645
 -0.000648
 -0.000651
 -0.000653
 -0.000656
 -0.000657
 -0.000659
 -0.000660
 -0.000661
 -0.000661
 -0.000662
 -0.000661
 -0.000661
 -0.000660
 -0.000659
 -0.000657
 -0.000656
 -0.000653
 -0.000651
 -0.000648
 -0.000645
 -0.000641
 -0.000637
 -0.000633
 -0.000629
 -0.000623
 -0.000618
 -0.000612
 -0.000606
 -0.000599
 -0.000592
 -0.000585
 -0.000577
 -0.000568
 -0.000560
 -0.000550
 -0.000540
 -0.000530
 -0.000519
 -0.000507
 -0.000495
 -0.000482
 -0.000469
 -0.000454
 -0.000440
 -0.000424
 -0.000407
 -0.000390
 -0.000371
 -0.000352
 -0.000331
 -0.000309
 -0.000285
 -0.000260
 -0.000234
 -0.000205
 -0.000173
 -0.000139
 -0.000100
 -0.000055
 0.000000
 0.000000
 -0.000100
 -0.000186
 -0.000261
 -0.000330
 -0.000392
 -0.000449
 -0.000503
 -0.000552
 -0.000599
 -0.000643
 -0.000684
 -0.000723
 -0.000760
 -0.000795
 -0.000828
 -0.000860
 -0.000890
 -0.000918
 -0.000945
 -0.000971
 -0.000995
 -0.001018
 -0.001040
 -0.001061
 -0.001081
 -0.001100
 -0.001117
 -0.001134
 -0.001150
 -0.001165
 -0.001179
 -0.001192
 -0.001205
 -0.001217
 -0.001227
 -0.001237
 -0.001247
 -0.001255
 -0.001263
 -0.001270
 -0.001277
 -0.001282
 -0.001287
 -0.001292
 -0.001295
 -0.001298
 -0.001301
 -0.001302
 -0.001303
 -0.001304
 -0.001303
 -0.001302
 -0.001301
 -0.001298
 -0.001295
 -0.001292
 -0.001287
 -0.001282
 -0.001277
 -0.001270
 -0.001263
 -0.001255
 -0.001247
 -0.001237
 -0.001227
 -0.001217
 -0.001205
 -0.001192
 -0.001179
 -0.001165
 -0.001150
 -0.001134
 -0.001117
 -0.001100
 -0.001081
 -0.001061
 -0.001040
 -0.001018
 -0.000995
 -0.000971
 -0.000945
 -0.000918
 -0.000890
 -0.000860
 -0.000828
 -0.000795
 -0.000760
 -0.000723
 -0.000684
 -0.000643
 -0.000599
 -0.000552
 -0.000503
 -0.000449
 -0.000392
 -0.000330
 -0.000261
 -0.000186
 -0.000100
 0.000000
 0.000000
 -0.000139
 -0.000261
 -0.000372
 -0.000472
 -0.000564
 -0.000649
 -0.000729
 -0.000803
 -0.000872
 -0.000938
 -0.000999
 -0.001058
 -0.001113
 -0.001165
 -0.001215
 -0.001262
 -0.001306
 -0.001349
 -0.001389
 -0.001428
 -0.001464
 -0.001499
 -0.001532
 -0.001563
 -0.001593
 -0.001621
 -0.001647
 -0.001673
 -0.001696
 -0.001719
 -0.001740
 -0.001760
 -0.001778
 -0.001796
 -0.001812
 -0.001827
 -0.001841
 -0.001854
 -0.001866
 -0.001876
 -0.001886
 -0.001894
 -0.001902
 -0.001908
 -0.001914
 -0.001918
 -0.001922
 -0.001924
 -0.001926
 -0.001926
 -0.001926
 -0.001924
 -0.001922
 -0.001918
 -0.001914
 -0.001908
 -0.001902
 -0.001894
 -0.001886
 -0.001876
 -0.001866
 -0.001854
 -0.001841
 -0.001827
 -0.001812
 -0.001796
 -0.001778
 -0.001760
 -0.001740
 -0.001719
 -0.001696
 -0.001673
 -0.001647
 -0.001621
 -0.001593
 -0.001563
 -0.001532
 -0.001499
 -0.001464
 -0.001428
 -0.001389
 -0.001349
 -0.001306
 -0.001262
 -0.001215
 -0.001165
 -0.001113
 -0.001058
 -0.000999
 -0.000938
 -0.000872
 -0.000803
 -0.000729
 -0.000649
 -0.000564
 -0.000472
 -0.000372
 -0.000261
 -0.000139
 0.000000
 0.000000
 -0.000173
 -0.000330
 -0.000472
 -0.000603
 -0.000723
 -0.000835
 -0.000940
 -0.001037
 -0.001129
 -0.001216
 -0.001298
 -0.001375
 -0.001448
 -0.001518
 -0.001583
 -0.001646
 -0.001705
 -0.001762
 -0.001816
 -0.001867
 -0.001915
 -0.001961
 -0.002005
 -0.002046
 -0.002086
 -0.002123
 -0.002159
 -0.002192
 -0.002224
 -0.002254
 -0.002282
 -0.002308
 -0.002333
 -0.002356
 -0.002378
 -0.002398
 -0.002416
 -0.002433
 -0.002449
 -0.002463
 -0.002476
 -0.002487
 -0.002497
 -0.002506
 -0.002513
 -0.002519
 -0.002524
 -0.002527
 -0.002529
 -0.002530
 -0.002529
 -0.002527
 -0.002524
 -0.002519
 -0.002513
 -0.002506
 -0.002497
 -0.002487
 -0.002476
 -0.002463
 -0.002449
 -0.002433
 -0.002416
 -0.002398
 -0.002378
 -0.002356
 -0.002333
 -0.002308
 -0.002282
 -0.002254
 -0.002224
 -0.002192
 -0.002159
 -0.002123
 -0.002086
 -0.002046
 -0.002005
 -0.001961
 -0.001915
 -0.001867
 -0.001816
 -0.001762
 -0.001705
 -0.001646
 -0.001583
 -0.001518
 -0.001448
 -0.001375
 -0.001298
 -0.001216
 -0.001129
 -0.001037
 -0.000940
 -0.000835
 -0.000723
 -0.000603
 -0.000472
 -0.000330
 -0.000173
 0.000000
 0.000000
 -0.000205
 -0.000392
 -0.000564
 -0.000723
 -0.000871
 -0.001008
 -0.001137
 -0.001258
 -0.001372
 -0.001479
 -0.001581
 -0.001677
 -0.001768
 -0.001854
 -0.001936
 -0.002013
 -0.002087
 -0.002158
 -0.002224
 -0.002288
 -0.002348
 -0.002406
 -0.002460
 -0.002512
 -0.002561
 -0.002608
 -0.002652
 -0.002694
 -0.002733
 -0.002770
 -0.002806
 -0.002838
 -0.002869
 -0.002898
 -0.002925
 -0.002950
 -0.002973
 -0.002995
 -0.003014
 -0.003032
 -0.003048
 -0.003062
 -0.003074
 -0.003085
 -0.003094
 -0.003102
 -0.003107
 -0.003112
 -0.003114
 -0.003115
 -0.003114
 -0.003112
 -0.003107
 -0.003102
 -0.003094
 -0.003085
 -0.003074
 -0.003062
 -0.003048
 -0.003032
 -0.003014
 -0.002995
 -0.002973
 -0.002950
 -0.002925
 -0.002898
 -0.002869
 -0.002838
 -0.002806
 -0.002770
 -0.002733
 -0.002694
 -0.002652
 -0.002608
 -0.002561
 -0.002512
 -0.002460
 -0.002406
 -0.002348
 -0.002288
 -0.002224
 -0.002158
 -0.002087
 -0.002013
 -0.001936
 -0.001854
 -0.001768
 -0.001677
 -0.001581
 -0.001479
 -0.001372
 -0.001258
 -0.001137
 -0.001008
 -0.000871
 -0.000723
 -0.000564
 -0.000392
 -0.000205
 0.000000
 0.000000
 -0.000234
 -0.000449
 -0.000649
 -0.000835
 -0.001008
 -0.001171
 -0.001323
 -0.001466
 -0.001601
 -0.001728
 -0.001849
 -0.001963
 -0.002071
 -0.002174
 -0.002272
 -0.002365
 -0.002453
 -0.002537
 -0.002617
 -0.002693
 -0.002765
 -0.002833
 -0.002899
 -0.002960
 -0.003019
 -0.003075
 -0.003128
 -0.003178
 -0.003225
 -0.003269
 -0.003311
 -0.003351
 -0.003388
 -0.003422
 -0.003455
 -0.003484
 -0.003512
 -0.003538
 -0.003561
 -0.003582
 -0.003601
 -0.003618
 -0.003633
 -0.003646
 -0.003657
 -0.003666
 -0.003673
 -0.003678
 -0.003681
 -0.003681
 -0.003681
 -0.003678
 -0.003673
 -0.003666
 -0.003657
 -0.003646
 -0.003633
 -0.003618
 -0.003601
 -0.003582
 -0.003561
 -0.003538
 -0.003512
 -0.003484
 -0.003455
 -0.003422
 -0.003388
 -0.003351
 -0.003311
 -0.003269
 -0.003225
 -0.003178
 -0.003128
 -0.003075
 -0.003019
 -0.002960
 -0.002899
 -0.002833
 -0.002765
 -0.002693
 -0.002617
 -0.002537
 -0.002453
 -0.002365
 -0.002272
 -0.002174
 -0.002071
 -0.001963
 -0.001849
 -0.001728
 -0.001601
 -0.001466
 -0.001323
 -0.001171
 -0.001008
 -0.000835
 -0.000649
 -0.000449
 -0.000234
 0.000000
 0.000000
 -0.000260
 -0.000503
 -0.000729
 -0.000940
 -0.001137
 -0.001323
 -0.001497
 -0.001662
 -0.001817
 -0.001964
 -0.002104
 -0.002236
 -0.002361
 -0.002480
 -0.002593
 -0.002701
 -0.002803
 -0.002900
 -0.002993
 -0.003081
 -0.003165
 -0.003244
 -0.003320
 -0.003392
 -0.003460
 -0.003525
 -0.003586
 -0.003644
 -0.003699
 -0.003751
 -0.003800
 -0.003846
 -0.003889
 -0.003929
 -0.003966
 -0.004001
 -0.004033
 -0.004063
 -0.004090
 -0.004115
 -0.004137
 -0.004156
 -0.004174
 -0.004189
 -0.004202
 -0.004212
 -0.004220
 -0.004226
 -0.004229
 -0.004230
 -0.004229
 -0.004226
 -0.004220
 -0.004212
 -0.004202
 -0.004189
 -0.004174
 -0.004156
 -0.004137
 -0.004115
 -0.004090
 -0.004063
 -0.004033
 -0.004001
 -0.003966
 -0.003929
 -0.003889
 -0.003846
 -0.003800
 -0.003751
 -0.003699
 -0.003644
 -0.003586
 -0.003525
 -0.003460
 -0.003392
 -0.003320
 -0.003244
 -0.003165
 -0.003081
 -0.002993
 -0.002900
 -0.002803
 -0.002701
 -0.002593
 -0.002480
 -0.002361
 -0.002236
 -0.002104
 -0.001964
 -0.001817
 -0.001662
 -0.001497
 -0.001323
 -0.001137
 -0.000940
 -0.000729
 -0.000503
 -0.000260
 0.000000
 0.000000
 -0.000285
 -0.000552
 -0.000803
 -0.001037
 -0.001258
 -0.001466
 -0.001662
 -0.001847
 -0.002022
 -0.002188
 -0.002346
 -0.002495
 -0.002637
 -0.002772
 -0.002900
 -0.003022
 -0.003138
 -0.003248
 -0.003354
 -0.003454
 -0.003549
 -0.003639
 -0.003725
 -0.003807
 -0.003885
 -0.003958
 -0.004028
 -0.004094
 -0.004157
 -0.004216
 -0.004271
 -0.004323
 -0.004372
 -0.004418
 -0.004461
 -0.004500
 -0.004537
 -0.004571
 -0.004601
 -0.004630
 -0.004655
 -0.004677
 -0.004697
 -0.004714
 -0.004729
 -0.004740
 -0.004749
 -0.004756
 -0.004760
 -0.004761
 -0.004760
 -0.004756
 -0.004749
 -0.004740
 -0.004729
 -0.004714
 -0.004697
 -0.004677
 -0.004655
 -0.004630
 -0.004601
 -0.004571
 -0.004537
 -0.004500
 -0.004461
 -0.004418
 -0.004372
 -0.004323
 -0.004271
 -0.004216
 -0.004157
 -0.004094
 -0.004028
 -0.003958
 -0.003885
 -0.003807
 -0.003725
 -0.003639
 -0.003549
 -0.003454
 -0.003354
 -0.003248
 -0.003138
 -0.003022
 -0.002900
 -0.002772
 -0.002637
 -0.002495
 -0.002346
 -0.002188
 -0.002022
 -0.001847
 -0.001662
 -0.001466
 -0.001258
 -0.001037
 -0.000803
 -0.000552
 -0.000285
 0.000000
 0.000000
 -0.000309
 -0.000599
 -0.000872
 -0.001129
 -0.001372
 -0.001601
 -0.001817
 -0.002022
 -0.002216
 -0.002401
 -0.002576
 -0.002742
 -0.002900
 -0.003050
 -0.003193
 -0.003329
 -0.003459
 -0.003582
 -0.003699
 -0.003811
 -0.003918
 -0.004019
 -0.004115
 -0.004207
 -0.004293
 -0.004376
 -0.004454
 -0.004528
 -0.004598
 -0.004664
 -0.004726
 -0.004784
 -0.004839
 -0.004890
 -0.004938
 -0.004982
 -0.005024
 -0.005061
 -0.005096
 -0.005127
 -0.005156
 -0.005181
 -0.005203
 -0.005222
 -0.005238
 -0.005251
 -0.005262
 -0.005269
 -0.005273
 -0.005275
 -0.005273
 -0.005269
 -0.005262
 -0.005251
 -0.005238
 -0.005222
 -0.005203
 -0.005181
 -0.005156
 -0.005127
 -0.005096
 -0.005061
 -0.005024
 -0.004982
 -0.004938
 -0.004890
 -0.004839
 -0.004784
 -0.004726
 -0.004664
 -0.004598
 -0.004528
 -0.004454
 -0.004376
 -0.004293
 -0.004207
 -0.004115
 -0.004019
 -0.003918
 -0.003811
 -0.003699
 -0.003582
 -0.003459
 -0.003329
 -0.003193
 -0.003050
 -0.002900
 -0.002742
 -0.002576
 -0.002401
 -0.002216
 -0.002022
 -0.001817
 -0.001601
 -0.001372
 -0.001129
 -0.000872
 -0.000599
 -0.000309
 0.000000
 0.000000
 -0.000331
 -0.000643
 -0.000938
 -0.001216
 -0.001479
 -0.001728
 -0.001964
 -0.002188
 -0.002401
 -0.002602
 -0.002794
 -0.002977
 -0.003150
 -0.003315
 -0.003473
 -0.003623
 -0.003765
 -0.003901
 -0.004031
 -0.004154
 -0.004272
 -0.004383
 -0.004490
 -0.004591
 -0.004686
 -0.004777
 -0.004864
 -0.004945
 -0.005023
 -0.005096
 -0.005164
 -0.005229
 -0.005289
 -0.005346
 -0.005399
 -0.005448
 -0.005494
 -0.005535
 -0.005574
 -0.005608
 -0.005640
 -0.005667
 -0.005692
 -0.005713
 -0.005731
 -0.005746
 -0.005757
 -0.005765
 -0.005770
 -0.005772
 -0.005770
 -0.005765
 -0.005757
 -0.005746
 -0.005731
 -0.005713
 -0.005692
 -0.005667
 -0.005640
 -0.005608
 -0.005574
 -0.005535
 -0.005494
 -0.005448
 -0.005399
 -0.005346
 -0.005289
 -0.005229
 -0.005164
 -0.005096
 -0.005023
 -0.004945
 -0.004864
 -0.004777
 -0.004686
 -0.004591
 -0.004490
 -0.004383
 -0.004272
 -0.004154
 -0.004031
 -0.003901
 -0.003765
 -0.003623
 -0.003473
 -0.003315
 -0.003150
 -0.002977
 -0.002794
 -0.002602
 -0.002401
 -0.002188
 -0.001964
 -0.001728
 -0.001479
 -0.001216
 -0.000938
 -0.000643
 -0.000331
 0.000000
 0.000000
 -0.000352
 -0.000684
 -0.000999
 -0.001298
 -0.001581
 -0.001849
 -0.002104
 -0.002346
 -0.002576
 -0.002794
 -0.003002
 -0.003200
 -0.003389
 -0.003569
 -0.003740
 -0.003903
 -0.004059
 -0.004207
 -0.004349
 -0.004483
 -0.004611
 -0.004733
 -0.004849
 -0.004960
 -0.005065
 -0.005164
 -0.005258
 -0.005348
 -0.005432
 -0.005512
 -0.005587
 -0.005658
 -0.005724
 -0.005786
 -0.005844
 -0.005897
 -0.005947
 -0.005993
 -0.006035
 -0.006073
 -0.006107
 -0.006138
 -0.006164
 -0.006188
 -0.006207
 -0.006223
 -0.006236
 -0.006244
 -0.006250
 -0.006251
 -0.006250
 -0.006244
 -0.006236
 -0.006223
 -0.006207
 -0.006188
 -0.006164
 -0.006138
 -0.006107
 -0.006073
 -0.006035
 -0.005993
 -0.005947
 -0.005897
 -0.005844
 -0.005786
 -0.005724
 -0.005658
 -0.005587
 -0.005512
 -0.005432
 -0.005348
 -0.005258
 -0.005164
 -0.005065
 -0.004960
 -0.004849
 -0.004733
 -0.004611
 -0.004483
 -0.004349
 -0.004207
 -0.004059
 -0.003903
 -0.003740
 -0.003569
 -0.003389
 -0.003200
 -0.003002
 -0.002794
 -0.002576
 -0.002346
 -0.002104
 -0.001849
 -0.001581
 -0.001298
 -0.000999
 -0.000684
 -0.000352
 0.000000
 0.000000
 -0.000371
 -0.000723
 -0.001058
 -0.001375
 -0.001677
 -0.001963
 -0.002236
 -0.002495
 -0.002742
 -0.002977
 -0.003200
 -0.003414
 -0.003617
 -0.003811
 -0.003996
 -0.004172
 -0.004340
 -0.004500
 -0.004653
 -0.004799
 -0.004937
 -0.005069
 -0.005195
 -0.005314
 -0.005428
 -0.005536
 -0.005638
 -0.005735
 -0.005826
 -0.005913
 -0.005994
 -0.006071
 -0.006143
 -0.006210
 -0.006273
 -0.006331
 -0.006385
 -0.006434
 -0.006480
 -0.006521
 -0.006558
 -0.006591
 -0.006621
 -0.006646
 -0.006667
 -0.006684
 -0.006698
 -0.006707
 -0.006713
 -0.006715
 -0.006713
 -0.006707
 -0.006698
 -0.006684
 -0.006667
 -0.006646
 -0.006621
 -0.006591
 -0.006558
 -0.006521
 -0.006480
 -0.006434
 -0.006385
 -0.006331
 -0.006273
 -0.006210
 -0.006143
 -0.006071
 -0.005994
 -0.005913
 -0.005826
 -0.005735
 -0.005638
 -0.005536
 -0.005428
 -0.005314
 -0.005195
 -0.005069
 -0.004937
 -0.004799
 -0.004653
 -0.004500
 -0.004340
 -0.004172
 -0.003996
 -0.003811
 -0.003617
 -0.003414
 -0.003200
 -0.002977
 -0.002742
 -0.002495
 -0.002236
 -0.001963
 -0.001677
 -0.001375
 -0.001058
 -0.000723
 -0.000371
 0.000000
 0.000000
 -0.000390
 -0.000760
 -0.001113
 -0.001448
 -0.001768
 -0.002071
 -0.002361
 -0.002637
 -0.002900
 -0.003150
 -0.003389
 -0.003617
 -0.003834
 -0.004042
 -0.004240
 -0.004429
 -0.004609
 -0.004781
 -0.004945
 -0.005101
 -0.005250
 -0.005392
 -0.005527
 -0.005655
 -0.005777
 -0.005893
 -0.006003
 -0.006107
 -0.006206
 -0.006299
 -0.006386
 -0.006469
 -0.006546
 -0.006619
 -0.006686
 -0.006749
 -0.006807
 -0.006860
 -0.006909
 -0.006954
 -0.006994
 -0.007029
 -0.007061
 -0.007088
 -0.007111
 -0.007129
 -0.007144
 -0.007154
 -0.007160
 -0.007163
 -0.007160
 -0.007154
 -0.007144
 -0.007129
 -0.007111
 -0.007088
 -0.007061
 -0.007029
 -0.006994
 -0.006954
 -0.006909
 -0.006860
 -0.006807
 -0.006749
 -0.006686
 -0.006619
 -0.006546
 -0.006469
 -0.006386
 -0.006299
 -0.006206
 -0.006107
 -0.006003
 -0.005893
 -0.005777
 -0.005655
 -0.005527
 -0.005392
 -0.005250
 -0.005101
 -0.004945
 -0.004781
 -0.004609
 -0.004429
 -0.004240
 -0.004042
 -0.003834
 -0.003617
 -0.003389
 -0.003150
 -0.002900
 -0.002637
 -0.002361
 -0.002071
 -0.001768
 -0.001448
 -0.001113
 -0.000760
 -0.000390
 0.000000
 0.000000
 -0.000407
 -0.000795
 -0.001165
 -0.001518
 -0.001854
 -0.002174
 -0.002480
 -0.002772
 -0.003050
 -0.003315
 -0.003569
 -0.003811
 -0.004042
 -0.004263
 -0.004473
 -0.004674
 -0.004866
 -0.005049
 -0.005224
 -0.005391
 -0.005550
 -0.005701
 -0.005845
 -0.005982
 -0.006113
 -0.006237
 -0.006354
 -0.006465
 -0.006571
 -0.006670
 -0.006764
 -0.006852
 -0.006935
 -0.007012
 -0.007084
 -0.007152
 -0.007214
 -0.007271
 -0.007323
 -0.007371
 -0.007414
 -0.007452
 -0.007485
 -0.007514
 -0.007539
 -0.007559
 -0.007574
 -0.007585
 -0.007592
 -0.007594
 -0.007592
 -0.007585
 -0.007574
 -0.007559
 -0.007539
 -0.007514
 -0.007485
 -0.007452
 -0.007414
 -0.007371
 -0.007323
 -0.007271
 -0.007214
 -0.007152
 -0.007084
 -0.007012
 -0.006935
 -0.006852
 -0.006764
 -0.006670
 -0.006571
 -0.006465
 -0.006354
 -0.006237
 -0.006113
 -0.005982
 -0.005845
 -0.005701
 -0.005550
 -0.005391
 -0.005224
 -0.005049
 -0.004866
 -0.004674
 -0.004473
 -0.004263
 -0.004042
 -0.003811
 -0.003569
 -0.003315
 -0.003050
 -0.002772
 -0.002480
 -0.002174
 -0.001854
 -0.001518
 -0.001165
 -0.000795
 -0.000407
 0.000000
 0.000000
 -0.000424
 -0.000828
 -0.001215
 -0.001583
 -0.001936
 -0.002272
 -0.002593
 -0.002900
 -0.003193
 -0.003473
 -0.003740
 -0.003996
 -0.004240
 -0.004473
 -0.004696
 -0.004909
 -0.005112
 -0.005306
 -0.005492
 -0.005668
 -0.005837
 -0.005998
 -0.006151
 -0.006296
 -0.006435
 -0.006566
 -0.006691
 -0.006809
 -0.006921
 -0.007027
 -0.007127
 -0.007221
 -0.007309
 -0.007391
 -0.007468
 -0.007539
 -0.007605
 -0.007666
 -0.007722
 -0.007773
 -0.007818
 -0.007859
 -0.007895
 -0.007925
 -0.007951
 -0.007973
 -0.007989
 -0.008001
 -0.008008
 -0.008010
 -0.008008
 -0.008001
 -0.007989
 -0.007973
 -0.007951
 -0.007925
 -0.007895
 -0.007859
 -0.007818
 -0.007773
 -0.007722
 -0.007666
 -0.007605
 -0.007539
 -0.007468
 -0.007391
 -0.007309
 -0.007221
 -0.007127
 -0.007027
 -0.006921
 -0.006809
 -0.006691
 -0.006566
 -0.006435
 -0.006296
 -0.006151
 -0.005998
 -0.005837
 -0.005668
 -0.005492
 -0.005306
 -0.005112
 -0.004909
 -0.004696
 -0.004473
 -0.004240
 -0.003996
 -0.003740
 -0.003473
 -0.003193
 -0.002900
 -0.002593
 -0.002272
 -0.001936
 -0.001583
 -0.001215
 -0.000828
 -0.000424
 0.000000
 0.000000
 -0.000440
 -0.000860
 -0.001262
 -0.001646
 -0.002013
 -0.002365
 -0.002701
 -0.003022
 -0.003329
 -0.003623
 -0.003903
 -0.004172
 -0.004429
 -0.004674
 -0.004909
 -0.005133
 -0.005347
 -0.005552
 -0.005748
 -0.005934
 -0.006112
 -0.006282
 -0.006444
 -0.006597
 -0.006744
 -0.006883
 -0.007015
 -0.007140
 -0.007259
 -0.007370
 -0.007476
 -0.007575
 -0.007668
 -0.007756
 -0.007837
 -0.007912
 -0.007982
 -0.008047
 -0.008106
 -0.008159
 -0.008208
 -0.008251
 -0.008289
 -0.008321
 -0.008349
 -0.008372
 -0.008389
 -0.008402
 -0.008409
 -0.008412
 -0.008409
 -0.008402
 -0.008389
 -0.008372
 -0.008349
 -0.008321
 -0.008289
 -0.008251
 -0.008208
 -0.008159
 -0.008106
 -0.008047
 -0.007982
 -0.007912
 -0.007837
 -0.007756
 -0.007668
 -0.007575
 -0.007476
 -0.007370
 -0.007259
 -0.007140
 -0.007015
 -0.006883
 -0.006744
 -0.006597
 -0.006444
 -0.006282
 -0.006112
 -0.005934
 -0.005748
 -0.005552
 -0.005347
 -0.005133
 -0.004909
 -0.004674
 -0.004429
 -0.004172
 -0.003903
 -0.003623
 -0.003329
 -0.003022
 -0.002701
 -0.002365
 -0.002013
 -0.001646
 -0.001262
 -0.000860
 -0.000440
 0.000000
 0.000000
 -0.000454
 -0.000890
 -0.001306
 -0.001705
 -0.002087
 -0.002453
 -0.002803
 -0.003138
 -0.003459
 -0.003765
 -0.004059
 -0.004340
 -0.004609
 -0.004866
 -0.005112
 -0.005347
 -0.005572
 -0.005787
 -0.005993
 -0.006189
 -0.006376
 -0.006554
 -0.006724
 -0.006886
 -0.007040
 -0.007187
 -0.007326
 -0.007458
 -0.007582
 -0.007700
 -0.007811
 -0.007916
 -0.008014
 -0.008106
 -0.008192
 -0.008271
 -0.008345
 -0.008413
 -0.008475
 -0.008532
 -0.008583
 -0.008628
 -0.008668
 -0.008703
 -0.008732
 -0.008756
 -0.008774
 -0.008787
 -0.008795
 -0.008798
 -0.008795
 -0.008787
 -0.008774
 -0.008756
 -0.008732
 -0.008703
 -0.008668
 -0.008628
 -0.008583
 -0.008532
 -0.008475
 -0.008413
 -0.008345
 -0.008271
 -0.008192
 -0.008106
 -0.008014
 -0.007916
 -0.007811
 -0.007700
 -0.007582
 -0.007458
 -0.007326
 -0.007187
 -0.007040
 -0.006886
 -0.006724
 -0.006554
 -0.006376
 -0.006189
 -0.005993
 -0.005787
 -0.005572
 -0.005347
 -0.005112
 -0.004866
 -0.004609
 -0.004340
 -0.004059
 -0.003765
 -0.003459
 -0.003138
 -0.002803
 -0.002453
 -0.002087
 -0.001705
 -0.001306
 -0.000890
 -0.000454
 0.000000
 0.000000
 -0.000469
 -0.000918
 -0.001349
 -0.001762
 -0.002158
 -0.002537