# vtk DataFile Version 2.0 
Grid
ASCII
DATASET STRUCTURED_GRID
DIMENSIONS 101 101 1
POINTS 10201 float
0.000000 0.000000 0.000000
0.020000 0.000000 0.000000
0.040000 0.000000 0.000000
0.060000 0.000000 0.000000
0.080000 0.000000 0.000000
0.100000 0.000000 0.000000
0.120000 0.000000 0.000000
0.140000 0.000000 0.000000
0.160000 0.000000 0.000000
0.180000 0.000000 0.000000
0.200000 0.000000 0.000000
0.220000 0.000000 0.000000
0.240000 0.000000 0.000000
0.260000 0.000000 0.000000
0.280000 0.000000 0.000000
0.300000 0.000000 0.000000
0.320000 0.000000 0.000000
0.340000 0.000000 0.000000
0.360000 0.000000 0.000000
0.380000 0.000000 0.000000
0.400000 0.000000 0.000000
0.420000 0.000000 0.000000
0.440000 0.000000 0.000000
0.460000 0.000000 0.000000
0.480000 0.000000 0.000000
0.500000 0.000000 0.000000
0.520000 0.000000 0.000000
0.540000 0.000000 0.000000
0.560000 0.000000 0.000000
0.580000 0.000000 0.000000
0.600000 0.000000 0.000000
0.620000 0.000000 0.000000
0.640000 0.000000 0.000000
0.660000 0.000000 0.000000
0.680000 0.000000 0.000000
0.700000 0.000000 0.000000
0.720000 0.000000 0.000000
0.740000 0.000000 0.000000
0.760000 0.000000 0.000000
0.780000 0.000000 0.000000
0.800000 0.000000 0.000000
0.820000 0.000000 0.000000
0.840000 0.000000 0.000000
0.860000 0.000000 0.000000
0.880000 0.000000 0.000000
0.900000 0.000000 0.000000
0.920000 0.000000 0.000000
0.940000 0.000000 0.000000
0.960000 0.000000 0.000000
0.980000 0.000000 0.000000
1.000000 0.000000 0.000000
1.020000 0.000000 0.000000
1.040000 0.000000 0.000000
1.060000 0.000000 0.000000
1.080000 0.000000 0.000000
1.100000 0.000000 0.000000
1.120000 0.000000 0.000000
1.140000 0.000000 0.000000
1.160000 0.000000 0.000000
1.180000 0.000000 0.000000
1.200000 0.000000 0.000000
1.220000 0.000000 0.000000
1.240000 0.000000 0.000000
1.260000 0.000000 0.000000
1.280000 0.000000 0.000000
1.300000 0.000000 0.000000
1.320000 0.000000 0.000000
1.340000 0.000000 0.000000
1.360000 0.000000 0.000000
1.380000 0.000000 0.000000
1.400000 0.000000 0.000000
1.420000 0.000000 0.000000
1.440000 0.000000 0.000000
1.460000 0.000000 0.000000
1.480000 0.000000 0.000000
1.500000 0.000000 0.000000
1.520000 0.000000 0.000000
1.540000 0.000000 0.000000
1.560000 0.000000 0.000000
1.580000 0.000000 0.000000
1.600000 0.000000 0.000000
1.620000 0.000000 0.000000
1.640000 0.000000 0.000000
1.660000 0.000000 0.000000
1.680000 0.000000 0.000000
1.700000 0.000000 0.000000
1.720000 0.000000 0.000000
1.740000 0.000000 0.000000
1.760000 0.000000 0.000000
1.780000 0.000000 0.000000
1.800000 0.000000 0.000000
1.820000 0.000000 0.000000
1.840000 0.000000 0.000000
1.860000 0.000000 0.000000
1.880000 0.000000 0.000000
1.900000 0.000000 0.000000
1.920000 0.000000 0.000000
1.940000 0.000000 0.000000
1.960000 0.000000 0.000000
1.980000 0.000000 0.000000
2.000000 0.000000 0.000000
0.000000 0.010000 0.000000
0.020000 0.010000 0.000000
0.040000 0.010000 0.000000
0.060000 0.010000 0.000000
0.080000 0.010000 0.000000
0.100000 0.010000 0.000000
0.120000 0.010000 0.000000
0.140000 0.010000 0.000000
0.160000 0.010000 0.000000
0.180000 0.010000 0.000000
0.200000 0.010000 0.000000
0.220000 0.010000 0.000000
0.240000 0.010000 0.000000
0.260000 0.010000 0.000000
0.280000 0.010000 0.000000
0.300000 0.010000 0.000000
0.320000 0.010000 0.000000
0.340000 0.010000 0.000000
0.360000 0.010000 0.000000
0.380000 0.010000 0.000000
0.400000 0.010000 0.000000
0.420000 0.010000 0.000000
0.440000 0.010000 0.000000
0.460000 0.010000 0.000000
0.480000 0.010000 0.000000
0.500000 0.010000 0.000000
0.520000 0.010000 0.000000
0.540000 0.010000 0.000000
0.560000 0.010000 0.000000
0.580000 0.010000 0.000000
0.600000 0.010000 0.000000
0.620000 0.010000 0.000000
0.640000 0.010000 0.000000
0.660000 0.010000 0.000000
0.680000 0.010000 0.000000
0.700000 0.010000 0.000000
0.720000 0.010000 0.000000
0.740000 0.010000 0.000000
0.760000 0.010000 0.000000
0.780000 0.010000 0.000000
0.800000 0.010000 0.000000
0.820000 0.010000 0.000000
0.840000 0.010000 0.000000
0.860000 0.010000 0.000000
0.880000 0.010000 0.000000
0.900000 0.010000 0.000000
0.920000 0.010000 0.000000
0.940000 0.010000 0.000000
0.960000 0.010000 0.000000
0.980000 0.010000 0.000000
1.000000 0.010000 0.000000
1.020000 0.010000 0.000000
1.040000 0.010000 0.000000
1.060000 0.010000 0.000000
1.080000 0.010000 0.000000
1.100000 0.010000 0.000000
1.120000 0.010000 0.000000
1.140000 0.010000 0.000000
1.160000 0.010000 0.000000
1.180000 0.010000 0.000000
1.200000 0.010000 0.000000
1.220000 0.010000 0.000000
1.240000 0.010000 0.000000
1.260000 0.010000 0.000000
1.280000 0.010000 0.000000
1.300000 0.010000 0.000000
1.320000 0.010000 0.000000
1.340000 0.010000 0.000000
1.360000 0.010000 0.000000
1.380000 0.010000 0.000000
1.400000 0.010000 0.000000
1.420000 0.010000 0.000000
1.440000 0.010000 0.000000
1.460000 0.010000 0.000000
1.480000 0.010000 0.000000
1.500000 0.010000 0.000000
1.520000 0.010000 0.000000
1.540000 0.010000 0.000000
1.560000 0.010000 0.000000
1.580000 0.010000 0.000000
1.600000 0.010000 0.000000
1.620000 0.010000 0.000000
1.640000 0.010000 0.000000
1.660000 0.010000 0.000000
1.680000 0.010000 0.000000
1.700000 0.010000 0.000000
1.720000 0.010000 0.000000
1.740000 0.010000 0.000000
1.760000 0.010000 0.000000
1.780000 0.010000 0.000000
1.800000 0.010000 0.000000
1.820000 0.010000 0.000000
1.840000 0.010000 0.000000
1.860000 0.010000 0.000000
1.880000 0.010000 0.000000
1.900000 0.010000 0.000000
1.920000 0.010000 0.000000
1.940000 0.010000 0.000000
1.960000 0.010000 0.000000
1.980000 0.010000 0.000000
2.000000 0.010000 0.000000
0.000000 0.020000 0.000000
0.020000 0.020000 0.000000
0.040000 0.020000 0.000000
0.060000 0.020000 0.000000
0.080000 0.020000 0.000000
0.100000 0.020000 0.000000
0.120000 0.020000 0.000000
0.140000 0.020000 0.000000
0.160000 0.020000 0.000000
0.180000 0.020000 0.000000
0.200000 0.020000 0.000000
0.220000 0.020000 0.000000
0.240000 0.020000 0.000000
0.260000 0.020000 0.000000
0.280000 0.020000 0.000000
0.300000 0.020000 0.000000
0.320000 0.020000 0.000000
0.340000 0.020000 0.000000
0.360000 0.020000 0.000000
0.380000 0.020000 0.000000
0.400000 0.020000 0.000000
0.420000 0.020000 0.000000
0.440000 0.020000 0.000000
0.460000 0.020000 0.000000
0.480000 0.020000 0.000000
0.500000 0.020000 0.000000
0.520000 0.020000 0.000000
0.540000 0.020000 0.000000
0.560000 0.020000 0.000000
0.580000 0.020000 0.000000
0.600000 0.020000 0.000000
0.620000 0.020000 0.000000
0.640000 0.020000 0.000000
0.660000 0.020000 0.000000
0.680000 0.020000 0.000000
0.700000 0.020000 0.000000
0.720000 0.020000 0.000000
0.740000 0.020000 0.000000
0.760000 0.020000 0.000000
0.780000 0.020000 0.000000
0.800000 0.020000 0.000000
0.820000 0.020000 0.000000
0.840000 0.020000 0.000000
0.860000 0.020000 0.000000
0.880000 0.020000 0.000000
0.900000 0.020000 0.000000
0.920000 0.020000 0.000000
0.940000 0.020000 0.000000
0.960000 0.020000 0.000000
0.980000 0.020000 0.000000
1.000000 0.020000 0.000000
1.020000 0.020000 0.000000
1.040000 0.020000 0.000000
1.060000 0.020000 0.000000
1.080000 0.020000 0.000000
1.100000 0.020000 0.000000
1.120000 0.020000 0.000000
1.140000 0.020000 0.000000
1.160000 0.020000 0.000000
1.180000 0.020000 0.000000
1.200000 0.020000 0.000000
1.220000 0.020000 0.000000
1.240000 0.020000 0.000000
1.260000 0.020000 0.000000
1.280000 0.020000 0.000000
1.300000 0.020000 0.000000
1.320000 0.020000 0.000000
1.340000 0.020000 0.000000
1.360000 0.020000 0.000000
1.380000 0.020000 0.000000
1.400000 0.020000 0.000000
1.420000 0.020000 0.000000
1.440000 0.020000 0.000000
1.460000 0.020000 0.000000
1.480000 0.020000 0.000000
1.500000 0.020000 0.000000
1.520000 0.020000 0.000000
1.540000 0.020000 0.000000
1.560000 0.020000 0.000000
1.580000 0.020000 0.000000
1.600000 0.020000 0.000000
1.620000 0.020000 0.000000
1.640000 0.020000 0.000000
1.660000 0.020000 0.000000
1.680000 0.020000 0.000000
1.700000 0.020000 0.000000
1.720000 0.020000 0.000000
1.740000 0.020000 0.000000
1.760000 0.020000 0.000000
1.780000 0.020000 0.000000
1.800000 0.020000 0.000000
1.820000 0.020000 0.000000
1.840000 0.020000 0.000000
1.860000 0.020000 0.000000
1.880000 0.020000 0.000000
1.900000 0.020000 0.000000
1.920000 0.020000 0.000000
1.940000 0.020000 0.000000
1.960000 0.020000 0.000000
1.980000 0.020000 0.000000
2.000000 0.020000 0.000000
0.000000 0.030000 0.000000
0.020000 0.030000 0.000000
0.040000 0.030000 0.000000
0.060000 0.030000 0.000000
0.080000 0.030000 0.000000
0.100000 0.030000 0.000000
0.120000 0.030000 0.000000
0.140000 0.030000 0.000000
0.160000 0.030000 0.000000
0.180000 0.030000 0.000000
0.200000 0.030000 0.000000
0.220000 0.030000 0.000000
0.240000 0.030000 0.000000
0.260000 0.030000 0.000000
0.280000 0.030000 0.000000
0.300000 0.030000 0.000000
0.320000 0.030000 0.000000
0.340000 0.030000 0.000000
0.360000 0.030000 0.000000
0.380000 0.030000 0.000000
0.400000 0.030000 0.000000
0.420000 0.030000 0.000000
0.440000 0.030000 0.000000
0.460000 0.030000 0.000000
0.480000 0.030000 0.000000
0.500000 0.030000 0.000000
0.520000 0.030000 0.000000
0.540000 0.030000 0.000000
0.560000 0.030000 0.000000
0.580000 0.030000 0.000000
0.600000 0.030000 0.000000
0.620000 0.030000 0.000000
0.640000 0.030000 0.000000
0.660000 0.030000 0.000000
0.680000 0.030000 0.000000
0.700000 0.030000 0.000000
0.720000 0.030000 0.000000
0.740000 0.030000 0.000000
0.760000 0.030000 0.000000
0.780000 0.030000 0.000000
0.800000 0.030000 0.000000
0.820000 0.030000 0.000000
0.840000 0.030000 0.000000
0.860000 0.030000 0.000000
0.880000 0.030000 0.000000
0.900000 0.030000 0.000000
0.920000 0.030000 0.000000
0.940000 0.030000 0.000000
0.960000 0.030000 0.000000
0.980000 0.030000 0.000000
1.000000 0.030000 0.000000
1.020000 0.030000 0.000000
1.040000 0.030000 0.000000
1.060000 0.030000 0.000000
1.080000 0.030000 0.000000
1.100000 0.030000 0.000000
1.120000 0.030000 0.000000
1.140000 0.030000 0.000000
1.160000 0.030000 0.000000
1.180000 0.030000 0.000000
1.200000 0.030000 0.000000
1.220000 0.030000 0.000000
1.240000 0.030000 0.000000
[...]
POINT_DATA 10201
SCALARS P float 1
LOOKUP_TABLE default
 0.000000
 0.020000
 0.040000
 0.060000
 0.080000
 0.100000
 0.120000
 0.140000
 0.160000
 0.180000
 0.200000
 0.220000
 0.240000
 0.260000
 0.280000
 0.300000
 0.320000
 0.340000
 0.360000
 0.380000
 0.400000
 0.420000
 0.440000
 0.460000
 0.480000
 0.500000
 0.520000
 0.540000
 0.560000
 0.580000
 0.600000
 0.620000
 0.640000
 0.660000
 0.680000
 0.700000
 0.720000
 0.740000
 0.760000
 0.780000
 0.800000
 0.820000
 0.840000
 0.860000
 0.880000
 0.900000
 0.920000
 0.940000
 0.960000
 0.980000
 1.000000
 1.020000
 1.040000
 1.060000
 1.080000
 1.100000
 1.120000
 1.140000
 1.160000
 1.180000
 1.200000
 1.220000
 1.240000
 1.260000
 1.280000
 1.300000
 1.320000
 1.340000
 1.360000
 1.380000
 1.400000
 1.420000
 1.440000
 1.460000
 1.480000
 1.500000
 1.520000
 1.540000
 1.560000
 1.580000
 1.600000
 1.620000
 1.640000
 1.660000
 1.680000
 1.700000
 1.720000
 1.740000
 1.760000
 1.780000
 1.800000
 1.820000
 1.840000
 1.860000
 1.880000
 1.900000
 1.920000
 1.940000
 1.960000
 1.980000
 2.000000
 0.000000
 0.020201
 0.040402
 0.060603
 0.080804
 0.101005
 0.121206
 0.141407
 0.161608
 0.181809
 0.202010
 0.222211
 0.242412
 0.262613
 0.282814
 0.303015
 0.323216
 0.343417
 0.363618
 0.383819
 0.404020
 0.424221
 0.444422
 0.464623
 0.484824
 0.505025
 0.525226
 0.545427
 0.565628
 0.585829
 0.606030
 0.626231
 0.646432
 0.666633
 0.686834
 0.707035
 0.727236
 0.747437
 0.767638
 0.787839
 0.808040
 0.828241
 0.848442
 0.868643
 0.888844
 0.909045
 0.929246
 0.949447
 0.969648
 0.989849
 1.010050
 1.030251
 1.050452
 1.070653
 1.090854
 1.111055
 1.131256
 1.151457
 1.171658
 1.191859
 1.212060
 1.232261
 1.252462
 1.272663
 1.292864
 1.313065
 1.333266
 1.353467
 1.373668
 1.393869
 1.414070
 1.434271
 1.454472
 1.474673
 1.494874
 1.515075
 1.535276
 1.555477
 1.575678
 1.595879
 1.616080
 1.636281
 1.656482
 1.676683
 1.696884
 1.717085
 1.737286
 1.757487
 1.777688
 1.797889
 1.818090
 1.838291
 1.858492
 1.878693
 1.898894
 1.919095
 1.939296
 1.959497
 1.979698
 1.999899
 2.020100
 0.000000
 0.020404
 0.040808
 0.061212
 0.081616
 0.102020
 0.122424
 0.142828
 0.163232
 0.183636
 0.204040
 0.224444
 0.244848
 0.265252
 0.285656
 0.306060
 0.326464
 0.346868
 0.367272
 0.387676
 0.408081
 0.428485
 0.448889
 0.469293
 0.489697
 0.510101
 0.530505
 0.550909
 0.571313
 0.591717
 0.612121
 0.632525
 0.652929
 0.673333
 0.693737
 0.714141
 0.734545
 0.754949
 0.775353
 0.795757
 0.816161
 0.836565
 0.856969
 0.877373
 0.897777
 0.918181
 0.938585
 0.958989
 0.979393
 0.999797
 1.020201
 1.040605
 1.061009
 1.081413
 1.101817
 1.122221
 1.142625
 1.163030
 1.183434
 1.203838
 1.224242
 1.244646
 1.265050
 1.285454
 1.305858
 1.326262
 1.346666
 1.367070
 1.387474
 1.407878
 1.428282
 1.448686
 1.469090
 1.489494
 1.509898
 1.530302
 1.550706
 1.571110
 1.591514
 1.611918
 1.632322
 1.652726
 1.673130
 1.693534
 1.713938
 1.734342
 1.754746
 1.775150
 1.795554
 1.815958
 1.836362
 1.856766
 1.877171
 1.897575
 1.917979
 1.938383
 1.958787
 1.979191
 1.999595
 2.019999
 2.040403
 0.000000
 0.020609
 0.041218
 0.061827
 0.082436
 0.103045
 0.123655
 0.144264
 0.164873
 0.185482
 0.206091
 0.226700
 0.247309
 0.267918
 0.288527
 0.309136
 0.329745
 0.350355
 0.370964
 0.391573
 0.412182
 0.432791
 0.453400
 0.474009
 0.494618
 0.515227
 0.535836
 0.556445
 0.577054
 0.597664
 0.618273
 0.638882
 0.659491
 0.680100
 0.700709
 0.721318
 0.741927
 0.762536
 0.783145
 0.803754
 0.824364
 0.844973
 0.865582
 0.886191
 0.906800
 0.927409
 0.948018
 0.968627
 0.989236
 1.009845
 1.030455
 1.051064
 1.071673
 1.092282
 1.112891
 1.133500
 1.154109
 1.174718
 1.195327
 1.215936
 1.236545
 1.257155
 1.277764
 1.298373
 1.318982
 1.339591
 1.360200
 1.380809
 1.401418
 1.422027
 1.442636
 1.463245
 1.483855
 1.504464
 1.525073
 1.545682
 1.566291
 1.586900
 1.607509
 1.628118
 1.648727
 1.669336
 1.689946
 1.710555
 1.731164
 1.751773
 1.772382
 1.792991
 1.813600
 1.834209
 1.854818
 1.875427
 1.896036
 1.916646
 1.937255
 1.957864
 1.978473
 1.999082
 2.019691
 2.040300
 2.060909
 0.000000
 0.020816
 0.041632
 0.062449
 0.083265
 0.104081
 0.124897
 0.145713
 0.166530
 0.187346
 0.208162
 0.228978
 0.249795
 0.270611
 0.291427
 0.312243
 0.333059
 0.353876
 0.374692
 0.395508
 0.416324
 0.437140
 0.457957
 0.478773
 0.499589
 0.520405
 0.541222
 0.562038
 0.582854
 0.603670
 0.624486
 0.645303
 0.666119
 0.686935
 0.707751
 0.728567
 0.749384
 0.770200
 0.791016
 0.811832
 0.832649
 0.853465
 0.874281
 0.895097
 0.915913
 0.936730
 0.957546
 0.978362
 0.999178
 1.019995
 1.040811
 1.061627
 1.082443
 1.103259
 1.124076
 1.144892
 1.165708
 1.186524
 1.207340
 1.228157
 1.248973
 1.269789
 1.290605
 1.311422
 1.332238
 1.353054
 1.373870
 1.394686
 1.415503
 1.436319
 1.457135
 1.477951
 1.498768
 1.519584
 1.540400
 1.561216
 1.582032
 1.602849
 1.623665
 1.644481
 1.665297
 1.686114
 1.706930
 1.727746
 1.748562
 1.769378
 1.790195
 1.811011
 1.831827
 1.852643
 1.873459
 1.894276
 1.915092
 1.935908
 1.956724
 1.977541
 1.998357
 2.019173
 2.039989
 2.060805
 2.081622
 0.000000
 0.021025
 0.042051
 0.063076
 0.084102
 0.105127
 0.126153
 0.147178
 0.168203
 0.189229
 0.210254
 0.231280
 0.252305
 0.273330
 0.294356
 0.315381
 0.336407
 0.357432
 0.378458
 0.399483
 0.420508
 0.441534
 0.462559
 0.483585
 0.504610
 0.525635
 0.546661
 0.567686
 0.588712
 0.609737
 0.630763
 0.651788
 0.672813
 0.693839
 0.714864
 0.735890
 0.756915
 0.777941
 0.798966
 0.819991
 0.841017
 0.862042
 0.883068
 0.904093
 0.925118
 0.946144
 0.967169
 0.988195
 1.009220
 1.030246
 1.051271
 1.072296
 1.093322
 1.114347
 1.135373
 1.156398
 1.177424
 1.198449
 1.219474
 1.240500
 1.261525
 1.282551
 1.303576
 1.324602
 1.345627
 1.366652
 1.387678
 1.408703
 1.429729
 1.450754
 1.471780
 1.492805
 1.513830
 1.534856
 1.555881
 1.576907
 1.597932
 1.618958
 1.639983
 1.661008
 1.682034
 1.703059
 1.724085
 1.745110
 1.766136
 1.787161
 1.808186
 1.829212
 1.850237
 1.871263
 1.892288
 1.913314
 1.934339
 1.955364
 1.976390
 1.997415
 2.018441
 2.039466
 2.060491
 2.081517
 2.102542
 0.000000
 0.021237
 0.042473
 0.063710
 0.084947
 0.106184
 0.127420
 0.148657
 0.169894
 0.191131
 0.212367
 0.233604
 0.254841
 0.276077
 0.297314
 0.318551
 0.339788
 0.361024
 0.382261
 0.403498
 0.424735
 0.445971
 0.467208
 0.488445
 0.509681
 0.530918
 0.552155
 0.573392
 0.594628
 0.615865
 0.637102
 0.658339
 0.679575
 0.700812
 0.722049
 0.743285
 0.764522
 0.785759
 0.806996
 0.828232
 0.849469
 0.870706
 0.891943
 0.913179
 0.934416
 0.955653
 0.976890
 0.998126
 1.019363
 1.040600
 1.061836
 1.083073
 1.104310
 1.125547
 1.146783
 1.168020
 1.189257
 1.210494
 1.231730
 1.252967
 1.274204
 1.295441
 1.316677
 1.337914
 1.359151
 1.380388
 1.401624
 1.422861
 1.444098
 1.465334
 1.486571
 1.507808
 1.529045
 1.550281
 1.571518
 1.592755
 1.613992
 1.635228
 1.656465
 1.677702
 1.698939
 1.720175
 1.741412
 1.762649
 1.783886
 1.805122
 1.826359
 1.847596
 1.868832
 1.890069
 1.911306
 1.932543
 1.953779
 1.975016
 1.996253
 2.017490
 2.038726
 2.059963
 2.081200
 2.102436
 2.123673
 0.000000
 0.021450
 0.042900
 0.064350
 0.085801
 0.107251
 0.128701
 0.150151
 0.171601
 0.193051
 0.214502
 0.235952
 0.257402
 0.278852
 0.300302
 0.321752
 0.343203
 0.364653
 0.386103
 0.407553
 0.429003
 0.450453
 0.471903
 0.493354
 0.514804
 0.536254
 0.557704
 0.579154
 0.600604
 0.622055
 0.643505
 0.664955
 0.686405
 0.707855
 0.729305
 0.750756
 0.772206
 0.793656
 0.815106
 0.836556
 0.858006
 0.879457
 0.900907
 0.922357
 0.943807
 0.965257
 0.986707
 1.008158
 1.029608
 1.051058
 1.072508
 1.093958
 1.115408
 1.136859
 1.158309
 1.179759
 1.201209
 1.222659
 1.244109
 1.265560
 1.287010
 1.308460
 1.329910
 1.351360
 1.372810
 1.394261
 1.415711
 1.437161
 1.458611
 1.480061
 1.501512
 1.522962
 1.544412
 1.565862
 1.587312
 1.608762
 1.630213
 1.651663
 1.673113
 1.694563
 1.716013
 1.737463
 1.758914
 1.780364
 1.801814
 1.823264
 1.844714
 1.866164
 1.887615
 1.909065
 1.930515
 1.951965
 1.973415
 1.994865
 2.016316
 2.037766
 2.059216
 2.080666
 2.102116
 2.123566
 2.145016
 0.000000
 0.021666
 0.043331
 0.064997
 0.086663
 0.108329
 0.129994
 0.151660
 0.173326
 0.194992
 0.216657
 0.238323
 0.259989
 0.281655
 0.303320
 0.324986
 0.346652
 0.368317
 0.389983
 0.411649
 0.433315
 0.454980
 0.476646
 0.498312
 0.519978
 0.541643
 0.563309
 0.584975
 0.606641
 0.628306
 0.649972
 0.671638
 0.693304
 0.714969
 0.736635
 0.758301
 0.779967
 0.801632
 0.823298
 0.844964
 0.866630
 0.888295
 0.909961
 0.931627
 0.953292
 0.974958
 0.996624
 1.018290
 1.039955
 1.061621
 1.083287
 1.104953
 1.126618
 1.148284
 1.169950
 1.191616
 1.213281
 1.234947
 1.256613
 1.278279
 1.299944
 1.321610
 1.343276
 1.364942
 1.386607
 1.408273
 1.429939
 1.451605
 1.473270
 1.494936
 1.516602
 1.538268
 1.559933
 1.581599
 1.603265
 1.624931
 1.646596
 1.668262
 1.689928
 1.711594
 1.733259
 1.754925
 1.776591
 1.798257
 1.819922
 1.841588
 1.863254
 1.884920
 1.906585
 1.928251
 1.949917
 1.971583
 1.993248
 2.014914
 2.036580
 2.058246
 2.079911
 2.101577
 2.123243
 2.144908
 2.166574
 0.000000
 0.021883
 0.043767
 0.065650
 0.087534
 0.109417
 0.131301
 0.153184
 0.175068
 0.196951
 0.218835
 0.240718
 0.262602
 0.284485
 0.306369
 0.328252
 0.350136
 0.372019
 0.393903
 0.415786
 0.437670
 0.459553
 0.481437
 0.503320
 0.525203
 0.547087
 0.568970
 0.590854
 0.612737
 0.634621
 0.656504
 0.678388
 0.700271
 0.722155
 0.744038
 0.765922
 0.787805
 0.809689
 0.831572
 0.853456
 0.875339
 0.897223
 0.919106
 0.940990
 0.962873
 0.984757
 1.006640
 1.028524
 1.050407
 1.072291
 1.094174
 1.116058
 1.137941
 1.159825
 1.181708
 1.203592
 1.225475
 1.247359
 1.269242
 1.291126
 1.313009
 1.334893
 1.356776
 1.378660
 1.400543
 1.422427
 1.444310
 1.466194
 1.488077
 1.509961
 1.531844
 1.553728
 1.575611
 1.597495
 1.619378
 1.641262
 1.663145
 1.685029
 1.706912
 1.728796
 1.750679
 1.772563
 1.794446
 1.816330
 1.838213
 1.860096
 1.881980
 1.903863
 1.925747
 1.947630
 1.969514
 1.991397
 2.013281
 2.035164
 2.057048
 2.078931
 2.100815
 2.122698
 2.144582
 2.166465
 2.188349
 0.000000
 0.022103
 0.044207
 0.066310
 0.088414
 0.110517
 0.132620
 0.154724
 0.176827
 0.198931
 0.221034
 0.243138
 0.265241
 0.287344
 0.309448
 0.331551
 0.353655
 0.375758
 0.397861
 0.419965
 0.442068
 0.464172
 0.486275
 0.508378
 0.530482
 0.552585
 0.574689
 0.596792
 0.618896
 0.640999
 0.663102
 0.685206
 0.707309
 0.729413
 0.751516
 0.773619
 0.795723
 0.817826
 0.839930
 0.862033
 0.884137
 0.906240
 0.928343
 0.950447
 0.972550
 0.994654
 1.016757
 1.038861
 1.060964
 1.083067
 1.105171
 1.127274
 1.149378
 1.171481
 1.193585
 1.215688
 1.237791
 1.259895
 1.281998
 1.304102
 1.326205
 1.348309
 1.370412
 1.392515
 1.414619
 1.436722
 1.458826
 1.480929
 1.503033
 1.525136
 1.547239
 1.569343
 1.591446
 1.613550
 1.635653
 1.657757
 1.679860
 1.701963
 1.724067
 1.746170
 1.768274
 1.790377
 1.812481
 1.834584
 1.856687
 1.878791
 1.900894
 1.922998
 1.945101
 1.967204
 1.989308
 2.011411
 2.033515
 2.055618
 2.077722
 2.099825
 2.121928
 2.144032
 2.166135
 2.188238
 2.210342
 0.000000
 0.022326
 0.044651
 0.066977
 0.089302
 0.111628
 0.133953
 0.156279
 0.178604
 0.200930
 0.223256
 0.245581
 0.267907
 0.290232
 0.312558
 0.334883
 0.357209
 0.379534
 0.401860
 0.424185
 0.446511
 0.468837
 0.491162
 0.513488
 0.535813
 0.558139
 0.580464
 0.602790
 0.625116
 0.647441
 0.669767
 0.692092
 0.714418
 0.736743
 0.759069
 0.781394
 0.803720
 0.826046
 0.848371
 0.870697
 0.893022
 0.915348
 0.937673
 0.959999
 0.982325
 1.004650
 1.026976
 1.049301
 1.071627
 1.093952
 1.116278
 1.138603
 1.160929
 1.183255
 1.205580
 1.227906
 1.250231
 1.272557
 1.294883
 1.317208
 1.339534
 1.361859
 1.384185
 1.406510
 1.428836
 1.451162
 1.473487
 1.495813
 1.518138
 1.540464
 1.562789
 1.585115
 1.607441
 1.629766
 1.652092
 1.674417
 1.696743
 1.719068
 1.741394
 1.763720
 1.786045
 1.808371
 1.830696
 1.853022
 1.875347
 1.897673
 1.919999
 1.942324
 1.964650
 1.986975
 2.009301
 2.031626
 2.053952
 2.076277
 2.098603
 2.120929
 2.143254
 2.165580
 2.187905
 2.210231
 2.232556
 0.000000
 0.022550
 0.045100
 0.067650
 0.090200
 0.112750
 0.135300
 0.157849
 0.180399
 0.202949
 0.225499
 0.248049
 0.270599
 0.293149
 0.315699
 0.338249
 0.360799
 0.383349
 0.405899
 0.428449
 0.450999
 0.473548
 0.496098
 0.518648
 0.541198
 0.563748
 0.586298
 0.608848
 0.631398
 0.653948
 0.676498
 0.699048
 0.721598
 0.744148
 0.766698
 0.789248
 0.811797
 0.834347
 0.856897
 0.879447
 0.901997
 0.924547
 0.947097
 0.969647
 0.992197
 1.014747
 1.037297
 1.059847
 1.082397
 1.104947
 1.127497
 1.150047
 1.172597
 1.195147
 1.217696
 1.240246
 1.262796
 1.285346
 1.307896
 1.330446
 1.352996
 1.375546
 1.398096
 1.420646
 1.443196
 1.465746
 1.488296
 1.510846
 1.533396
 1.555946
 1.578496
 1.601046
 1.623596
 1.646146
 1.668696
 1.691245
 1.713795
 1.736345
 1.758895
 1.781445
 1.803995
 1.826545
 1.849095
 1.871645
 1.894195
 1.916745
 1.939295
 1.961845
 1.984395
 2.006945
 2.029495
 2.052045
 2.074594
 2.097144
 2.119694
 2.142244
 2.164794
 2.187344
 2.209894
 2.232444
 2.254994
 0.000000
 0.022777
 0.045553
 0.068330
 0.091106
 0.113883
 0.136659
 0.159436
 0.182212
 0.204989
 0.227766
 0.250542
 0.273319
 0.296095
 0.318872
 0.341648
 0.364425
 0.387201
 0.409978
 0.432755
 0.455531
 0.478308
 0.501084
 0.523861
 0.546637
 0.569414
 0.592191
 0.614967
 0.637744
 0.660520
 0.683297
 0.706073
 0.728850
 0.751626
 0.774403
 0.797180
 0.819956
 0.842733
 0.865509
 0.888286
 0.911062
 0.933839
 0.956616
 0.979392
 1.002169
 1.024945
 1.047722
 1.070498
 1.093275
 1.116052
 1.138828
 1.161605
 1.184381
 1.207158
 1.229935
 1.252711
 1.275488
 1.298264
 1.321041
 1.343817
 1.366594
 1.389371
 1.412147
 1.434924
 1.457700
 1.480477
 1.503254
 1.526030
 1.548807
 1.571583
 1.594360
 1.617136
 1.639913
 1.662690
 1.685466
 1.708243
 1.731019
 1.753796
 1.776573
 1.799349
 1.822126
 1.844902
 1.867679
 1.890455
 1.913232
 1.936009
 1.958785
 1.981562
 2.004338
 2.027115
 2.049891
 2.072668
 2.095444
 2.118221
 2.140998
 2.163774
 2.186551
 2.209327
 2.232104
 2.254880
 2.277657
 0.000000
 0.023005
 0.046011
 0.069016
 0.092022
 0.115027
 0.138033
 0.161038
 0.184044
 0.207049
 0.230055
 0.253060
 0.276066
 0.299071
 0.322076
 0.345082
 0.368087
 0.391093
 0.414098
 0.437104
 0.460109
 0.483115
 0.506120
 0.529126
 0.552131
 0.575137
 0.598142
 0.621148
 0.644153
 0.667159
 0.690164
 0.713169
 0.736175
 0.759180
 0.782186
 0.805191
 0.828197
 0.851202
 0.874208
 0.897213
 0.920219
 0.943224
 0.966230
 0.989235
 1.012241
 1.035246
 1.058252
 1.081257
 1.104263
 1.127268
 1.150274
 1.173279
 1.196285
 1.219290
 1.242296
 1.265301
 1.288307
 1.311312
 1.334318
 1.357323
 1.380329
 1.403334
 1.426339
 1.449345
 1.472350
 1.495356
 1.518361
 1.541367
 1.564372
 1.587378
 1.610383
 1.633389
 1.656394
 1.679400
 1.702405
 1.725411
 1.748416
 1.771422
 1.794427
 1.817433
 1.840438
 1.863444
 1.886449
 1.909455
 1.932460
 1.955466
 1.978471
 2.001477
 2.024482
 2.047488
 2.070493
 2.093499
 2.116504
 2.139510
 2.162515
 2.185520
 2.208526
 2.231531
 2.254537
 2.277542
 2.300548
 0.000000
 0.023237
 0.046473
 0.069710
 0.092947
 0.116183
 0.139420
 0.162657
 0.185893
 0.209130
 0.232367
 0.255603
 0.278840
 0.302077
 0.325313
 0.348550
 0.371787
 0.395023
 0.418260
 0.441497
 0.464733
 0.487970
 0.511207
 0.534443
 0.557680
 0.580917
 0.604154
 0.627390
 0.650627
 0.673864
 0.697100
 0.720337
 0.743574
 0.766810
 0.790047
 0.813284
 0.836520
 0.859757
 0.882994
 0.906230
 0.929467
 0.952704
 0.975940
 0.999177
 1.022414
 1.045651
 1.068887
 1.092124
 1.115361
 1.138597
 1.161834
 1.185071
 1.208307
 1.231544
 1.254781
 1.278018
 1.301254
 1.324491
 1.347728
 1.370964
 1.394201
 1.417438
 1.440674
 1.463911
 1.487148
 1.510385
 1.533621
 1.556858
 1.580095
 1.603331
 1.626568
 1.649805
 1.673041
 1.696278
 1.719515
 1.742752
 1.765988
 1.789225
 1.812462
 1.835698
 1.858935
 1.882172
 1.905408
 1.928645
 1.951882
 1.975119
 1.998355
 2.021592
 2.044829
 2.068065
 2.091302
 2.114539
 2.137775
 2.161012
 2.184249
 2.207485
 2.230722
 2.253959
 2.277195
 2.300432
 2.323668
 0.000000
 0.023470
 0.046940
 0.070411
 0.093881
 0.117351
 0.140821
 0.164291
 0.187762
 0.211232
 0.234702
 0.258172
 0.281642
 0.305113
 0.328583
 0.352053
 0.375523
 0.398993
 0.422464
 0.445934
 0.469404
 0.492874
 0.516345
 0.539815
 0.563285
 0.586755
 0.610225
 0.633696
 0.657166
 0.680636
 0.704106
 0.727576
 0.751047
 0.774517
 0.797987
 0.821457
 0.844928
 0.868398
 0.891868
 0.915338
 0.938808
 0.962279
 0.985749
 1.009219
 1.032689
 1.056160
 1.079630
 1.103100
 1.126570
 1.150040
 1.173511
 1.196981
 1.220451
 1.243921
 1.267392
 1.290862
 1.314332
 1.337802
 1.361273
 1.384743
 1.408213
 1.431683
 1.455153
 1.478624
 1.502094
 1.525564
 1.549034
 1.572505
 1.595975
 1.619445
 1.642915
 1.666386
 1.689856
 1.713326
 1.736796
 1.760267
 1.783737
 1.807207
 1.830677
 1.854147
 1.877618
 1.901088
 1.924558
 1.948028
 1.971499
 1.994969
 2.018439
 2.041909
 2.065379
 2.088850
 2.112320
 2.135790
 2.159260
 2.182730
 2.206201
 2.229671
 2.253141
 2.276611
 2.300081
 2.323552
 2.347022
 0.000000
 0.023706
 0.047412
 0.071118
 0.094824
 0.118530
 0.142236
 0.165943
 0.189649
 0.213355
 0.237061
 0.260767
 0.284473
 0.308179
 0.331885
 0.355591
 0.379297
 0.403003
 0.426709
 0.450416
 0.474122
 0.497828
 0.521534
 0.545240
 0.568946
 0.592652
 0.616358
 0.640064
 0.663770
 0.687476
 0.711183
 0.734889
 0.758595
 0.782301
 0.806007
 0.829713
 0.853419
 0.877125
 0.900831
 0.924537
 0.948244
 0.971950
 0.995656
 1.019362
 1.043068
 1.066774
 1.090480
 1.114186
 1.137892
 1.161599
 1.185305
 1.209011
 1.232717
 1.256423
 1.280129
 1.303835
 1.327541
 1.351247
 1.374954
 1.398660
 1.422366
 1.446072
 1.469778
 1.493484
 1.517190
 1.540896
 1.564602
 1.588309
 1.612015
 1.635721
 1.659427
 1.683133
 1.706839
 1.730545
 1.754251
 1.777957
 1.801664
 1.825370
 1.849076
 1.872782
 1.896488
 1.920194
 1.943900
 1.967606
 1.991312
 2.015019
 2.038725
 2.062431
 2.086137
 2.109843
 2.133549
 2.157255
 2.180961
 2.204667
 2.228373
 2.252079
 2.275786
 2.299492
 2.323198
 2.346904
 2.370610
 0.000000
 0.023944
 0.047889
 0.071833
 0.095777
 0.119722
 0.143666
 0.167610
 0.191555
 0.215499
 0.239443
 0.263388
 0.287332
 0.311276
 0.335221
 0.359165
 0.383109
 0.407054
 0.430998
 0.454942
 0.478887
 0.502831
 0.526775
 0.550720
 0.574664
 0.598608
 0.622553
 0.646497
 0.670441
 0.694386
 0.718330
 0.742274
 0.766219
 0.790163
 0.814107
 0.838052
 0.861996
 0.885940
 0.909885
 0.933829
 0.957774
 0.981718
 1.005662
 1.029607
 1.053551
 1.077495
 1.101440
 1.125384
 1.149328
 1.173273
 1.197217
 1.221161
 1.245106
 1.269050
 1.292995
 1.316939
 1.340883
 1.364828
 1.388772
 1.412716
 1.436661
 1.460605
 1.484549
 1.508494
 1.532438
 1.556383
 1.580327
 1.604271
 1.628216
 1.652160
 1.676104
 1.700049
 1.723993
 1.747938
 1.771882
 1.795826
 1.819771
 1.843715
 1.867659
 1.891604
 1.915548
 1.939492
 1.963437
 1.987381
 2.011326
 2.035270
 2.059214
 2.083159
 2.107103
 2.131047
 2.154992
 2.178936
 2.202880
 2.226825
 2.250769
 2.274713
 2.298658
 2.322602
 2.346546
 2.370490
 2.394435
 0.000000
 0.024185
 0.048370
 0.072555
 0.096740
 0.120925
 0.145110
 0.169295
 0.193480
 0.217665
 0.241850
 0.266035
 0.290220
 0.314405
 0.338590
 0.362775
 0.386960
 0.411145
 0.435330
 0.459515
 0.483700
 0.507885
 0.532070
 0.556254
 0.580439
 0.604624
 0.628809
 0.652994
 0.677179
 0.701364
 0.725549
 0.749734
 0.773919
 0.798104
 0.822289
 0.846474
 0.870659
 0.894844
 0.919029
 0.943214
 0.967399
 0.991584
 1.015769
 1.039954
 1.064139
 1.088324
 1.112509
 1.136694
 1.160879
 1.185064
 1.209249
 1.233434
 1.257619
 1.281804
 1.305989
 1.330174
 1.354359
 1.378544
 1.402729
 1.426914
 1.451099
 1.475284
 1.499469
 1.523654
 1.547839
 1.572024
 1.596210
 1.620395
 1.644580
 1.668765
 1.692950
 1.717135
 1.741320
 1.765505
 1.789690