# vtk DataFile Version 2.0 
Grid
ASCII
DATASET STRUCTURED_GRID
DIMENSIONS 100 100 1
POINTS 10000 float
0.000000 0.000000 0.000000
0.020202 0.000000 0.000000
0.040404 0.000000 0.000000
0.060606 0.000000 0.000000
0.080808 0.000000 0.000000
0.101010 0.000000 0.000000
0.121212 0.000000 0.000000
0.141414 0.000000 0.000000
0.161616 0.000000 0.000000
0.181818 0.000000 0.000000
0.202020 0.000000 0.000000
0.222222 0.000000 0.000000
0.242424 0.000000 0.000000
0.262626 0.000000 0.000000
0.282828 0.000000 0.000000
0.303030 0.000000 0.000000
0.323232 0.000000 0.000000
0.343434 0.000000 0.000000
0.363636 0.000000 0.000000
0.383838 0.000000 0.000000
0.404040 0.000000 0.000000
0.424242 0.000000 0.000000
0.444444 0.000000 0.000000
0.464646 0.000000 0.000000
0.484848 0.000000 0.000000
0.505051 0.000000 0.000000
0.525253 0.000000 0.000000
0.545455 0.000000 0.000000
0.565657 0.000000 0.000000
0.585859 0.000000 0.000000
0.606061 0.000000 0.000000
0.626263 0.000000 0.000000
0.646465 0.000000 0.000000
0.666667 0.000000 0.000000
0.686869 0.000000 0.000000
0.707071 0.000000 0.000000
0.727273 0.000000 0.000000
0.747475 0.000000 0.000000
0.767677 0.000000 0.000000
0.787879 0.000000 0.000000
0.808081 0.000000 0.000000
0.828283 0.000000 0.000000
0.848485 0.000000 0.000000
0.868687 0.000000 0.000000
0.888889 0.000000 0.000000
0.909091 0.000000 0.000000
0.929293 0.000000 0.000000
0.949495 0.000000 0.000000
0.969697 0.000000 0.000000
0.989899 0.000000 0.000000
1.010101 0.000000 0.000000
1.030303 0.000000 0.000000
1.050505 0.000000 0.000000
1.070707 0.000000 0.000000
1.090909 0.000000 0.000000
1.111111 0.000000 0.000000
1.131313 0.000000 0.000000
1.151515 0.000000 0.000000
1.171717 0.000000 0.000000
1.191919 0.000000 0.000000
1.212121 0.000000 0.000000
1.232323 0.000000 0.000000
1.252525 0.000000 0.000000
1.272727 0.000000 0.000000
1.292929 0.000000 0.000000
1.313131 0.000000 0.000000
1.333333 0.000000 0.000000
1.353535 0.000000 0.000000
1.373737 0.000000 0.000000
1.393939 0.000000 0.000000
1.414141 0.000000 0.000000
1.434343 0.000000 0.000000
1.454545 0.000000 0.000000
1.474747 0.000000 0.000000
1.494949 0.000000 0.000000
1.515152 0.000000 0.000000
1.535354 0.000000 0.000000
1.555556 0.000000 0.000000
1.575758 0.000000 0.000000
1.595960 0.000000 0.000000
1.616162 0.000000 0.000000
1.636364 0.000000 0.000000
1.656566 0.000000 0.000000
1.676768 0.000000 0.000000
1.696970 0.000000 0.000000
1.717172 0.000000 0.000000
1.737374 0.000000 0.000000
1.757576 0.000000 0.000000
1.777778 0.000000 0.000000
1.797980 0.000000 0.000000
1.818182 0.000000 0.000000
1.838384 0.000000 0.000000
1.858586 0.000000 0.000000
1.878788 0.000000 0.000000
1.898990 0.000000 0.000000
1.919192 0.000000 0.000000
1.939394 0.000000 0.000000
1.959596 0.000000 0.000000
1.979798 0.000000 0.000000
2.000000 0.000000 0.000000
0.000000 0.010101 0.000000
0.020202 0.010101 0.000000
0.040404 0.010101 0.000000
0.060606 0.010101 0.000000
0.080808 0.010101 0.000000
0.101010 0.010101 0.000000
0.121212 0.010101 0.000000
0.141414 0.010101 0.000000
0.161616 0.010101 0.000000
0.181818 0.010101 0.000000
0.202020 0.010101 0.000000
0.222222 0.010101 0.000000
0.242424 0.010101 0.000000
0.262626 0.010101 0.000000
0.282828 0.010101 0.000000
0.303030 0.010101 0.000000
0.323232 0.010101 0.000000
0.343434 0.010101 0.000000
0.363636 0.010101 0.000000
0.383838 0.010101 0.000000
0.404040 0.010101 0.000000
0.424242 0.010101 0.000000
0.444444 0.010101 0.000000
0.464646 0.010101 0.000000
0.484848 0.010101 0.000000
0.505051 0.010101 0.000000
0.525253 0.010101 0.000000
0.545455 0.010101 0.000000
0.565657 0.010101 0.000000
0.585859 0.010101 0.000000
0.606061 0.010101 0.000000
0.626263 0.010101 0.000000
0.646465 0.010101 0.000000
0.666667 0.010101 0.000000
0.686869 0.010101 0.000000
0.707071 0.010101 0.000000
0.727273 0.010101 0.000000
0.747475 0.010101 0.000000
0.767677 0.010101 0.000000
0.787879 0.010101 0.000000
0.808081 0.010101 0.000000
0.828283 0.010101 0.000000
0.848485 0.010101 0.000000
0.868687 0.010101 0.000000
0.888889 0.010101 0.000000
0.909091 0.010101 0.000000
0.929293 0.010101 0.000000
0.949495 0.010101 0.000000
0.969697 0.010101 0.000000
0.989899 0.010101 0.000000
1.010101 0.010101 0.000000
1.030303 0.010101 0.000000
1.050505 0.010101 0.000000
1.070707 0.010101 0.000000
1.090909 0.010101 0.000000
1.111111 0.010101 0.000000
1.131313 0.010101 0.000000
1.151515 0.010101 0.000000
1.171717 0.010101 0.000000
1.191919 0.010101 0.000000
1.212121 0.010101 0.000000
1.232323 0.010101 0.000000
1.252525 0.010101 0.000000
1.272727 0.010101 0.000000
1.292929 0.010101 0.000000
1.313131 0.010101 0.000000
1.333333 0.010101 0.000000
1.353535 0.010101 0.000000
1.373737 0.010101 0.000000
1.393939 0.010101 0.000000
1.414141 0.010101 0.000000
1.434343 0.010101 0.000000
1.454545 0.010101 0.000000
1.474747 0.010101 0.000000
1.494949 0.010101 0.000000
1.515152 0.010101 0.000000
1.535354 0.010101 0.000000
1.555556 0.010101 0.000000
1.575758 0.010101 0.000000
1.595960 0.010101 0.000000
1.616162 0.010101 0.000000
1.636364 0.010101 0.000000
1.656566 0.010101 0.000000
1.676768 0.010101 0.000000
1.696970 0.010101 0.000000
1.717172 0.010101 0.000000
1.737374 0.010101 0.000000
1.757576 0.010101 0.000000
1.777778 0.010101 0.000000
1.797980 0.010101 0.000000
1.818182 0.010101 0.000000
1.838384 0.010101 0.000000
1.858586 0.010101 0.000000
1.878788 0.010101 0.000000
1.898990 0.010101 0.000000
1.919192 0.010101 0.000000
1.939394 0.010101 0.000000
1.959596 0.010101 0.000000
1.979798 0.010101 0.000000
2.000000 0.010101 0.000000
0.000000 0.020202 0.000000
0.020202 0.020202 0.000000
0.040404 0.020202 0.000000
0.060606 0.020202 0.000000
0.080808 0.020202 0.000000
0.101010 0.020202 0.000000
0.121212 0.020202 0.000000
0.141414 0.020202 0.000000
0.161616 0.020202 0.000000
0.181818 0.020202 0.000000
0.202020 0.020202 0.000000
0.222222 0.020202 0.000000
0.242424 0.020202 0.000000
0.262626 0.020202 0.000000
0.282828 0.020202 0.000000
0.303030 0.020202 0.000000
0.323232 0.020202 0.000000
0.343434 0.020202 0.000000
0.363636 0.020202 0.000000
0.383838 0.020202 0.000000
0.404040 0.020202 0.000000
0.424242 0.020202 0.000000
0.444444 0.020202 0.000000
0.464646 0.020202 0.000000
0.484848 0.020202 0.000000
0.505051 0.020202 0.000000
0.525253 0.020202 0.000000
0.545455 0.020202 0.000000
0.565657 0.020202 0.000000
0.585859 0.020202 0.000000
0.606061 0.020202 0.000000
0.626263 0.020202 0.000000
0.646465 0.020202 0.000000
0.666667 0.020202 0.000000
0.686869 0.020202 0.000000
0.707071 0.020202 0.000000
0.727273 0.020202 0.000000
0.747475 0.020202 0.000000
0.767677 0.020202 0.000000
0.787879 0.020202 0.000000
0.808081 0.020202 0.000000
0.828283 0.020202 0.000000
0.848485 0.020202 0.000000
0.868687 0.020202 0.000000
0.888889 0.020202 0.000000
0.909091 0.020202 0.000000
0.929293 0.020202 0.000000
0.949495 0.020202 0.000000
0.969697 0.020202 0.000000
0.989899 0.020202 0.000000
1.010101 0.020202 0.000000
1.030303 0.020202 0.000000
1.050505 0.020202 0.000000
1.070707 0.020202 0.000000
1.090909 0.020202 0.000000
1.111111 0.020202 0.000000
1.131313 0.020202 0.000000
1.151515 0.020202 0.000000
1.171717 0.020202 0.000000
1.191919 0.020202 0.000000
1.212121 0.020202 0.000000
1.232323 0.020202 0.000000
1.252525 0.020202 0.000000
1.272727 0.020202 0.000000
1.292929 0.020202 0.000000
1.313131 0.020202 0.000000
1.333333 0.020202 0.000000
1.353535 0.020202 0.000000
1.373737 0.020202 0.000000
1.393939 0.020202 0.000000
1.414141 0.020202 0.000000
1.434343 0.020202 0.000000
1.454545 0.020202 0.000000
1.474747 0.020202 0.000000
1.494949 0.020202 0.000000
1.515152 0.020202 0.000000
1.535354 0.020202 0.000000
1.555556 0.020202 0.000000
1.575758 0.020202 0.000000
1.595960 0.020202 0.000000
1.616162 0.020202 0.000000
1.636364 0.020202 0.000000
1.656566 0.020202 0.000000
1.676768 0.020202 0.000000
1.696970 0.020202 0.000000
1.717172 0.020202 0.000000
1.737374 0.020202 0.000000
1.757576 0.020202 0.000000
1.777778 0.020202 0.000000
1.797980 0.020202 0.000000
1.818182 0.020202 0.000000
1.838384 0.020202 0.000000
1.858586 0.020202 0.000000
1.878788 0.020202 0.000000
1.898990 0.020202 0.000000
1.919192 0.020202 0.000000
1.939394 0.020202 0.000000
1.959596 0.020202 0.000000
1.979798 0.020202 0.000000
2.000000 0.020202 0.000000
0.000000 0.030303 0.000000
0.020202 0.030303 0.000000
0.040404 0.030303 0.000000
0.060606 0.030303 0.000000
0.080808 0.030303 0.000000
0.101010 0.030303 0.000000
0.121212 0.030303 0.000000
0.141414 0.030303 0.000000
0.161616 0.030303 0.000000
0.181818 0.030303 0.000000
0.202020 0.030303 0.000000
0.222222 0.030303 0.000000
0.242424 0.030303 0.000000
0.262626 0.030303 0.000000
0.282828 0.030303 0.000000
0.303030 0.030303 0.000000
0.323232 0.030303 0.000000
0.343434 0.030303 0.000000
0.363636 0.030303 0.000000
0.383838 0.030303 0.000000
0.404040 0.030303 0.000000
0.424242 0.030303 0.000000
0.444444 0.030303 0.000000
0.464646 0.030303 0.000000
0.484848 0.030303 0.000000
0.505051 0.030303 0.000000
0.525253 0.030303 0.000000
0.545455 0.030303 0.000000
0.565657 0.030303 0.000000
0.585859 0.030303 0.000000
0.606061 0.030303 0.000000
0.626263 0.030303 0.000000
0.646465 0.030303 0.000000
0.666667 0.030303 0.000000
0.686869 0.030303 0.000000
0.707071 0.030303 0.000000
0.727273 0.030303 0.000000
0.747475 0.030303 0.000000
0.767677 0.030303 0.000000
0.787879 0.030303 0.000000
0.808081 0.030303 0.000000
0.828283 0.030303 0.000000
0.848485 0.030303 0.000000
0.868687 0.030303 0.000000
0.888889 0.030303 0.000000
0.909091 0.030303 0.000000
0.929293 0.030303 0.000000
0.949495 0.030303 0.000000
0.969697 0.030303 0.000000
0.989899 0.030303 0.000000
1.010101 0.030303 0.000000
1.030303 0.030303 0.000000
1.050505 0.030303 0.000000
1.070707 0.030303 0.000000
1.090909 0.030303 0.000000
1.111111 0.030303 0.000000
1.131313 0.030303 0.000000
1.151515 0.030303 0.000000
1.171717 0.030303 0.000000
1.191919 0.030303 0.000000
1.212121 0.030303 0.000000
1.232323 0.030303 0.000000
1.252525 0.030303 0.000000
1.272727 0.030303 0.000000
1.292929 0.030303 0.000000
1.313131 0.030303 0.000000
[...]
POINT_DATA 10000
SCALARS P float 1
LOOKUP_TABLE default
 0.000000
 0.020202
 0.040404
 0.060606
 0.080808
 0.101010
 0.121212
 0.141414
 0.161616
 0.181818
 0.202020
 0.222222
 0.242424
 0.262626
 0.282828
 0.303030
 0.323232
 0.343434
 0.363636
 0.383838
 0.404040
 0.424242
 0.444444
 0.464646
 0.484848
 0.505051
 0.525253
 0.545455
 0.565657
 0.585859
 0.606061
 0.626263
 0.646465
 0.666667
 0.686869
 0.707071
 0.727273
 0.747475
 0.767677
 0.787879
 0.808081
 0.828283
 0.848485
 0.868687
 0.888889
 0.909091
 0.929293
 0.949495
 0.969697
 0.989899
 1.010101
 1.030303
 1.050505
 1.070707
 1.090909
 1.111111
 1.131313
 1.151515
 1.171717
 1.191919
 1.212121
 1.232323
 1.252525
 1.272727
 1.292929
 1.313131
 1.333333
 1.353535
 1.373737
 1.393939
 1.414141
 1.434343
 1.454545
 1.474747
 1.494949
 1.515152
 1.535354
 1.555556
 1.575758
 1.595960
 1.616162
 1.636364
 1.656566
 1.676768
 1.696970
 1.717172
 1.737374
 1.757576
 1.777778
 1.797980
 1.818182
 1.838384
 1.858586
 1.878788
 1.898990
 1.919192
 1.939394
 1.959596
 1.979798
 2.000000
 0.000000
 0.020407
 0.040814
 0.061221
 0.081628
 0.102036
 0.122443
 0.142850
 0.163257
 0.183664
 0.204071
 0.224478
 0.244885
 0.265293
 0.285700
 0.306107
 0.326514
 0.346921
 0.367328
 0.387735
 0.408142
 0.428549
 0.448957
 0.469364
 0.489771
 0.510178
 0.530585
 0.550992
 0.571399
 0.591806
 0.612213
 0.632621
 0.653028
 0.673435
 0.693842
 0.714249
 0.734656
 0.755063
 0.775470
 0.795878
 0.816285
 0.836692
 0.857099
 0.877506
 0.897913
 0.918320
 0.938727
 0.959134
 0.979542
 0.999949
 1.020356
 1.040763
 1.061170
 1.081577
 1.101984
 1.122391
 1.142799
 1.163206
 1.183613
 1.204020
 1.224427
 1.244834
 1.265241
 1.285648
 1.306055
 1.326463
 1.346870
 1.367277
 1.387684
 1.408091
 1.428498
 1.448905
 1.469312
 1.489719
 1.510127
 1.530534
 1.550941
 1.571348
 1.591755
 1.612162
 1.632569
 1.652976
 1.673384
 1.693791
 1.714198
 1.734605
 1.755012
 1.775419
 1.795826
 1.816233
 1.836640
 1.857048
 1.877455
 1.897862
 1.918269
 1.938676
 1.959083
 1.979490
 1.999897
 2.020304
 0.000000
 0.020614
 0.041229
 0.061843
 0.082457
 0.103071
 0.123686
 0.144300
 0.164914
 0.185529
 0.206143
 0.226757
 0.247372
 0.267986
 0.288600
 0.309214
 0.329829
 0.350443
 0.371057
 0.391672
 0.412286
 0.432900
 0.453514
 0.474129
 0.494743
 0.515357
 0.535972
 0.556586
 0.577200
 0.597815
 0.618429
 0.639043
 0.659657
 0.680272
 0.700886
 0.721500
 0.742115
 0.762729
 0.783343
 0.803957
 0.824572
 0.845186
 0.865800
 0.886415
 0.907029
 0.927643
 0.948258
 0.968872
 0.989486
 1.010100
 1.030715
 1.051329
 1.071943
 1.092558
 1.113172
 1.133786
 1.154400
 1.175015
 1.195629
 1.216243
 1.236858
 1.257472
 1.278086
 1.298701
 1.319315
 1.339929
 1.360543
 1.381158
 1.401772
 1.422386
 1.443001
 1.463615
 1.484229
 1.504843
 1.525458
 1.546072
 1.566686
 1.587301
 1.607915
 1.628529
 1.649144
 1.669758
 1.690372
 1.710986
 1.731601
 1.752215
 1.772829
 1.793444
 1.814058
 1.834672
 1.855286
 1.875901
 1.896515
 1.917129
 1.937744
 1.958358
 1.978972
 1.999586
 2.020201
 2.040815
 0.000000
 0.020824
 0.041647
 0.062471
 0.083294
 0.104118
 0.124941
 0.145765
 0.166589
 0.187412
 0.208236
 0.229059
 0.249883
 0.270706
 0.291530
 0.312354
 0.333177
 0.354001
 0.374824
 0.395648
 0.416472
 0.437295
 0.458119
 0.478942
 0.499766
 0.520589
 0.541413
 0.562237
 0.583060
 0.603884
 0.624707
 0.645531
 0.666354
 0.687178
 0.708002
 0.728825
 0.749649
 0.770472
 0.791296
 0.812119
 0.832943
 0.853767
 0.874590
 0.895414
 0.916237
 0.937061
 0.957884
 0.978708
 0.999532
 1.020355
 1.041179
 1.062002
 1.082826
 1.103650
 1.124473
 1.145297
 1.166120
 1.186944
 1.207767
 1.228591
 1.249415
 1.270238
 1.291062
 1.311885
 1.332709
 1.353532
 1.374356
 1.395180
 1.416003
 1.436827
 1.457650
 1.478474
 1.499297
 1.520121
 1.540945
 1.561768
 1.582592
 1.603415
 1.624239
 1.645062
 1.665886
 1.686710
 1.707533
 1.728357
 1.749180
 1.770004
 1.790827
 1.811651
 1.832475
 1.853298
 1.874122
 1.894945
 1.915769
 1.936592
 1.957416
 1.978239
 1.999063
 2.019887
 2.040710
 2.061534
 0.000000
 0.021035
 0.042070
 0.063105
 0.084140
 0.105175
 0.126210
 0.147245
 0.168280
 0.189315
 0.210350
 0.231385
 0.252420
 0.273455
 0.294490
 0.315525
 0.336560
 0.357595
 0.378630
 0.399665
 0.420700
 0.441735
 0.462770
 0.483805
 0.504840
 0.525875
 0.546910
 0.567945
 0.588980
 0.610014
 0.631049
 0.652084
 0.673119
 0.694154
 0.715189
 0.736224
 0.757259
 0.778294
 0.799329
 0.820364
 0.841399
 0.862434
 0.883469
 0.904504
 0.925539
 0.946574
 0.967609
 0.988644
 1.009679
 1.030714
 1.051749
 1.072784
 1.093819
 1.114854
 1.135889
 1.156924
 1.177959
 1.198994
 1.220029
 1.241064
 1.262099
 1.283134
 1.304169
 1.325204
 1.346239
 1.367274
 1.388309
 1.409344
 1.430379
 1.451414
 1.472449
 1.493484
 1.514519
 1.535554
 1.556589
 1.577624
 1.598659
 1.619694
 1.640729
 1.661763
 1.682798
 1.703833
 1.724868
 1.745903
 1.766938
 1.787973
 1.809008
 1.830043
 1.851078
 1.872113
 1.893148
 1.914183
 1.935218
 1.956253
 1.977288
 1.998323
 2.019358
 2.040393
 2.061428
 2.082463
 0.000000
 0.021249
 0.042497
 0.063746
 0.084994
 0.106243
 0.127491
 0.148740
 0.169988
 0.191237
 0.212485
 0.233734
 0.254982
 0.276231
 0.297479
 0.318728
 0.339977
 0.361225
 0.382474
 0.403722
 0.424971
 0.446219
 0.467468
 0.488716
 0.509965
 0.531213
 0.552462
 0.573710
 0.594959
 0.616208
 0.637456
 0.658705
 0.679953
 0.701202
 0.722450
 0.743699
 0.764947
 0.786196
 0.807444
 0.828693
 0.849941
 0.871190
 0.892438
 0.913687
 0.934936
 0.956184
 0.977433
 0.998681
 1.019930
 1.041178
 1.062427
 1.083675
 1.104924
 1.126172
 1.147421
 1.168669
 1.189918
 1.211166
 1.232415
 1.253664
 1.274912
 1.296161
 1.317409
 1.338658
 1.359906
 1.381155
 1.402403
 1.423652
 1.444900
 1.466149
 1.487397
 1.508646
 1.529894
 1.551143
 1.572391
 1.593640
 1.614889
 1.636137
 1.657386
 1.678634
 1.699883
 1.721131
 1.742380
 1.763628
 1.784877
 1.806125
 1.827374
 1.848622
 1.869871
 1.891119
 1.912368
 1.933616
 1.954865
 1.976113
 1.997362
 2.018610
 2.039859
 2.061107
 2.082356
 2.103604
 0.000000
 0.021464
 0.042929
 0.064393
 0.085857
 0.107321
 0.128786
 0.150250
 0.171714
 0.193178
 0.214643
 0.236107
 0.257571
 0.279035
 0.300500
 0.321964
 0.343428
 0.364892
 0.386357
 0.407821
 0.429285
 0.450749
 0.472214
 0.493678
 0.515142
 0.536606
 0.558071
 0.579535
 0.600999
 0.622463
 0.643928
 0.665392
 0.686856
 0.708320
 0.729785
 0.751249
 0.772713
 0.794177
 0.815642
 0.837106
 0.858570
 0.880034
 0.901499
 0.922963
 0.944427
 0.965891
 0.987356
 1.008820
 1.030284
 1.051748
 1.073213
 1.094677
 1.116141
 1.137605
 1.159070
 1.180534
 1.201998
 1.223462
 1.244927
 1.266391
 1.287855
 1.309320
 1.330784
 1.352248
 1.373712
 1.395177
 1.416641
 1.438105
 1.459569
 1.481034
 1.502498
 1.523962
 1.545426
 1.566890
 1.588355
 1.609819
 1.631283
 1.652747
 1.674212
 1.695676
 1.717140
 1.738604
 1.760069
 1.781533
 1.802997
 1.824461
 1.845926
 1.867390
 1.888854
 1.910318
 1.931783
 1.953247
 1.974711
 1.996175
 2.017639
 2.039104
 2.060568
 2.082032
 2.103496
 2.124961
 0.000000
 0.021682
 0.043364
 0.065046
 0.086729
 0.108411
 0.130093
 0.151775
 0.173457
 0.195139
 0.216822
 0.238504
 0.260186
 0.281868
 0.303550
 0.325232
 0.346915
 0.368597
 0.390279
 0.411961
 0.433643
 0.455325
 0.477008
 0.498690
 0.520372
 0.542054
 0.563736
 0.585418
 0.607101
 0.628783
 0.650465
 0.672147
 0.693829
 0.715511
 0.737194
 0.758876
 0.780558
 0.802240
 0.823922
 0.845604
 0.867287
 0.888969
 0.910651
 0.932333
 0.954015
 0.975697
 0.997380
 1.019062
 1.040744
 1.062426
 1.084108
 1.105790
 1.127473
 1.149155
 1.170837
 1.192519
 1.214201
 1.235883
 1.257566
 1.279248
 1.300930
 1.322612
 1.344294
 1.365976
 1.387659
 1.409341
 1.431023
 1.452705
 1.474387
 1.496069
 1.517751
 1.539434
 1.561116
 1.582798
 1.604480
 1.626162
 1.647844
 1.669527
 1.691209
 1.712891
 1.734573
 1.756255
 1.777937
 1.799619
 1.821302
 1.842984
 1.864666
 1.886348
 1.908030
 1.929712
 1.951394
 1.973077
 1.994759
 2.016441
 2.038123
 2.059805
 2.081487
 2.103169
 2.124851
 2.146534
 0.000000
 0.021902
 0.043805
 0.065707
 0.087609
 0.109511
 0.131414
 0.153316
 0.175218
 0.197121
 0.219023
 0.240925
 0.262827
 0.284730
 0.306632
 0.328534
 0.350437
 0.372339
 0.394241
 0.416143
 0.438046
 0.459948
 0.481850
 0.503753
 0.525655
 0.547557
 0.569459
 0.591362
 0.613264
 0.635166
 0.657069
 0.678971
 0.700873
 0.722775
 0.744678
 0.766580
 0.788482
 0.810385
 0.832287
 0.854189
 0.876092
 0.897994
 0.919896
 0.941798
 0.963701
 0.985603
 1.007505
 1.029408
 1.051310
 1.073212
 1.095114
 1.117017
 1.138919
 1.160821
 1.182724
 1.204626
 1.226528
 1.248430
 1.270333
 1.292235
 1.314137
 1.336040
 1.357942
 1.379844
 1.401746
 1.423649
 1.445551
 1.467453
 1.489355
 1.511258
 1.533160
 1.555062
 1.576965
 1.598867
 1.620769
 1.642671
 1.664574
 1.686476
 1.708378
 1.730281
 1.752183
 1.774085
 1.795987
 1.817890
 1.839792
 1.861694
 1.883596
 1.905499
 1.927401
 1.949303
 1.971205
 1.993108
 2.015010
 2.036912
 2.058814
 2.080717
 2.102619
 2.124521
 2.146423
 2.168326
 0.000000
 0.022125
 0.044249
 0.066374
 0.088499
 0.110623
 0.132748
 0.154873
 0.176997
 0.199122
 0.221246
 0.243371
 0.265496
 0.287620
 0.309745
 0.331870
 0.353994
 0.376119
 0.398244
 0.420368
 0.442493
 0.464618
 0.486742
 0.508867
 0.530991
 0.553116
 0.575241
 0.597365
 0.619490
 0.641615
 0.663739
 0.685864
 0.707989
 0.730113
 0.752238
 0.774363
 0.796487
 0.818612
 0.840737
 0.862861
 0.884986
 0.907110
 0.929235
 0.951360
 0.973484
 0.995609
 1.017734
 1.039858
 1.061983
 1.084108
 1.106232
 1.128357
 1.150482
 1.172606
 1.194731
 1.216855
 1.238980
 1.261105
 1.283229
 1.305354
 1.327479
 1.349603
 1.371728
 1.393853
 1.415977
 1.438102
 1.460226
 1.482351
 1.504476
 1.526600
 1.548725
 1.570850
 1.592974
 1.615099
 1.637224
 1.659348
 1.681473
 1.703597
 1.725722
 1.747847
 1.769971
 1.792096
 1.814221
 1.836345
 1.858470
 1.880594
 1.902719
 1.924844
 1.946968
 1.969093
 1.991218
 2.013342
 2.035467
 2.057591
 2.079716
 2.101841
 2.123965
 2.146090
 2.168214
 2.190339
 0.000000
 0.022349
 0.044699
 0.067048
 0.089397
 0.111746
 0.134096
 0.156445
 0.178794
 0.201143
 0.223493
 0.245842
 0.268191
 0.290540
 0.312890
 0.335239
 0.357588
 0.379937
 0.402287
 0.424636
 0.446985
 0.469334
 0.491684
 0.514033
 0.536382
 0.558731
 0.581081
 0.603430
 0.625779
 0.648129
 0.670478
 0.692827
 0.715176
 0.737526
 0.759875
 0.782224
 0.804573
 0.826923
 0.849272
 0.871621
 0.893970
 0.916320
 0.938669
 0.961018
 0.983367
 1.005717
 1.028066
 1.050415
 1.072764
 1.095114
 1.117463
 1.139812
 1.162161
 1.184511
 1.206860
 1.229209
 1.251559
 1.273908
 1.296257
 1.318606
 1.340956
 1.363305
 1.385654
 1.408003
 1.430353
 1.452702
 1.475051
 1.497400
 1.519750
 1.542099
 1.564448
 1.586797
 1.609147
 1.631496
 1.653845
 1.676194
 1.698544
 1.720893
 1.743242
 1.765591
 1.787940
 1.810290
 1.832639
 1.854988
 1.877337
 1.899687
 1.922036
 1.944385
 1.966734
 1.989084
 2.011433
 2.033782
 2.056131
 2.078480
 2.100830
 2.123179
 2.145528
 2.167877
 2.190226
 2.212576
 0.000000
 0.022576
 0.045152
 0.067728
 0.090305
 0.112881
 0.135457
 0.158033
 0.180609
 0.203185
 0.225762
 0.248338
 0.270914
 0.293490
 0.316066
 0.338642
 0.361218
 0.383795
 0.406371
 0.428947
 0.451523
 0.474099
 0.496675
 0.519252
 0.541828
 0.564404
 0.586980
 0.609556
 0.632132
 0.654708
 0.677285
 0.699861
 0.722437
 0.745013
 0.767589
 0.790165
 0.812742
 0.835318
 0.857894
 0.880470
 0.903046
 0.925622
 0.948198
 0.970775
 0.993351
 1.015927
 1.038503
 1.061079
 1.083655
 1.106232
 1.128808
 1.151384
 1.173960
 1.196536
 1.219112
 1.241688
 1.264265
 1.286841
 1.309417
 1.331993
 1.354569
 1.377145
 1.399722
 1.422298
 1.444874
 1.467450
 1.490026
 1.512602
 1.535178
 1.557755
 1.580331
 1.602907
 1.625483
 1.648059
 1.670635
 1.693211
 1.715788
 1.738364
 1.760940
 1.783516
 1.806092
 1.828668
 1.851244
 1.873820
 1.896397
 1.918973
 1.941549
 1.964125
 1.986701
 2.009277
 2.031853
 2.054429
 2.077006
 2.099582
 2.122158
 2.144734
 2.167310
 2.189886
 2.212462
 2.235038
 0.000000
 0.022805
 0.045611
 0.068416
 0.091221
 0.114027
 0.136832
 0.159637
 0.182443
 0.205248
 0.228054
 0.250859
 0.273664
 0.296470
 0.319275
 0.342080
 0.364886
 0.387691
 0.410496
 0.433302
 0.456107
 0.478912
 0.501718
 0.524523
 0.547328
 0.570134
 0.592939
 0.615745
 0.638550
 0.661355
 0.684161
 0.706966
 0.729771
 0.752577
 0.775382
 0.798187
 0.820993
 0.843798
 0.866603
 0.889409
 0.912214
 0.935019
 0.957825
 0.980630
 1.003436
 1.026241
 1.049046
 1.071852
 1.094657
 1.117462
 1.140268
 1.163073
 1.185878
 1.208684
 1.231489
 1.254294
 1.277100
 1.299905
 1.322710
 1.345516
 1.368321
 1.391126
 1.413932
 1.436737
 1.459543
 1.482348
 1.505153
 1.527959
 1.550764
 1.573569
 1.596375
 1.619180
 1.641985
 1.664791
 1.687596
 1.710401
 1.733207
 1.756012
 1.778817
 1.801623
 1.824428
 1.847233
 1.870039
 1.892844
 1.915649
 1.938455
 1.961260
 1.984065
 2.006870
 2.029676
 2.052481
 2.075286
 2.098092
 2.120897
 2.143702
 2.166508
 2.189313
 2.212118
 2.234923
 2.257729
 0.000000
 0.023037
 0.046074
 0.069111
 0.092148
 0.115184
 0.138221
 0.161258
 0.184295
 0.207332
 0.230369
 0.253406
 0.276443
 0.299479
 0.322516
 0.345553
 0.368590
 0.391627
 0.414664
 0.437701
 0.460738
 0.483774
 0.506811
 0.529848
 0.552885
 0.575922
 0.598959
 0.621996
 0.645033
 0.668069
 0.691106
 0.714143
 0.737180
 0.760217
 0.783254
 0.806291
 0.829328
 0.852365
 0.875401
 0.898438
 0.921475
 0.944512
 0.967549
 0.990586
 1.013623
 1.036660
 1.059696
 1.082733
 1.105770
 1.128807
 1.151844
 1.174881
 1.197918
 1.220955
 1.243991
 1.267028
 1.290065
 1.313102
 1.336139
 1.359176
 1.382213
 1.405250
 1.428286
 1.451323
 1.474360
 1.497397
 1.520434
 1.543471
 1.566508
 1.589544
 1.612581
 1.635618
 1.658655
 1.681692
 1.704729
 1.727766
 1.750802
 1.773839
 1.796876
 1.819913
 1.842950
 1.865987
 1.889024
 1.912060
 1.935097
 1.958134
 1.981171
 2.004208
 2.027245
 2.050281
 2.073318
 2.096355
 2.119392
 2.142429
 2.165466
 2.188502
 2.211539
 2.234576
 2.257613
 2.280650
 0.000000
 0.023271
 0.046542
 0.069812
 0.093083
 0.116354
 0.139625
 0.162895
 0.186166
 0.209437
 0.232708
 0.255978
 0.279249
 0.302520
 0.325791
 0.349061
 0.372332
 0.395603
 0.418874
 0.442144
 0.465415
 0.488686
 0.511957
 0.535227
 0.558498
 0.581769
 0.605040
 0.628310
 0.651581
 0.674852
 0.698123
 0.721393
 0.744664
 0.767935
 0.791206
 0.814476
 0.837747
 0.861018
 0.884289
 0.907559
 0.930830
 0.954101
 0.977372
 1.000642
 1.023913
 1.047184
 1.070455
 1.093725
 1.116996
 1.140267
 1.163538
 1.186808
 1.210079
 1.233350
 1.256621
 1.279891
 1.303162
 1.326433
 1.349704
 1.372974
 1.396245
 1.419516
 1.442787
 1.466057
 1.489328
 1.512599
 1.535870
 1.559140
 1.582411
 1.605682
 1.628953
 1.652223
 1.675494
 1.698765
 1.722036
 1.745306
 1.768577
 1.791848
 1.815118
 1.838389
 1.861660
 1.884931
 1.908201
 1.931472
 1.954743
 1.978014
 2.001284
 2.024555
 2.047826
 2.071096
 2.094367
 2.117638
 2.140908
 2.164179
 2.187450
 2.210721
 2.233991
 2.257262
 2.280533
 2.303803
 0.000000
 0.023507
 0.047014
 0.070521
 0.094028
 0.117535
 0.141042
 0.164549
 0.188056
 0.211563
 0.235070
 0.258577
 0.282084
 0.305591
 0.329098
 0.352605
 0.376112
 0.399619
 0.423126
 0.446633
 0.470140
 0.493647
 0.517154
 0.540661
 0.564168
 0.587675
 0.611182
 0.634689
 0.658196
 0.681703
 0.705210
 0.728717
 0.752224
 0.775731
 0.799238
 0.822745
 0.846252
 0.869759
 0.893266
 0.916773
 0.940280
 0.963787
 0.987294
 1.010801
 1.034308
 1.057815
 1.081322
 1.104829
 1.128336
 1.151843
 1.175350
 1.198857
 1.222364
 1.245871
 1.269378
 1.292885
 1.316392
 1.339899
 1.363406
 1.386913
 1.410420
 1.433927
 1.457434
 1.480941
 1.504448
 1.527955
 1.551462
 1.574969
 1.598476
 1.621983
 1.645490
 1.668997
 1.692504
 1.716011
 1.739518
 1.763025
 1.786532
 1.810039
 1.833546
 1.857053
 1.880560
 1.904067
 1.927574
 1.951081
 1.974588
 1.998095
 2.021602
 2.045109
 2.068616
 2.092123
 2.115630
 2.139136
 2.162643
 2.186150
 2.209657
 2.233164
 2.256671
 2.280178
 2.303685
 2.327192
 0.000000
 0.023746
 0.047491
 0.071237
 0.094983
 0.118728
 0.142474
 0.166220
 0.189965
 0.213711
 0.237457
 0.261202
 0.284948
 0.308693
 0.332439
 0.356185
 0.379930
 0.403676
 0.427422
 0.451167
 0.474913
 0.498659
 0.522404
 0.546150
 0.569896
 0.593641
 0.617387
 0.641133
 0.664878
 0.688624
 0.712370
 0.736115
 0.759861
 0.783607
 0.807352
 0.831098
 0.854843
 0.878589
 0.902335
 0.926080
 0.949826
 0.973572
 0.997317
 1.021063
 1.044809
 1.068554
 1.092300
 1.116046
 1.139791
 1.163537
 1.187283
 1.211028
 1.234774
 1.258520
 1.282265
 1.306011
 1.329756
 1.353502
 1.377248
 1.400993
 1.424739
 1.448485
 1.472230
 1.495976
 1.519722
 1.543467
 1.567213
 1.590959
 1.614704
 1.638450
 1.662195
 1.685941
 1.709687
 1.733432
 1.757178
 1.780924
 1.804669
 1.828415
 1.852161
 1.875906
 1.899652
 1.923397
 1.947143
 1.970889
 1.994634
 2.018380
 2.042125
 2.065871
 2.089617
 2.113362
 2.137108
 2.160853
 2.184599
 2.208345
 2.232090
 2.255836
 2.279581
 2.303327
 2.327072
 2.350818
 0.000000
 0.023987
 0.047973
 0.071960
 0.095947
 0.119934
 0.143920
 0.167907
 0.191894
 0.215881
 0.239867
 0.263854
 0.287841
 0.311827
 0.335814
 0.359801
 0.383788
 0.407774
 0.431761
 0.455748
 0.479734
 0.503721
 0.527708
 0.551695
 0.575681
 0.599668
 0.623655
 0.647642
 0.671628
 0.695615
 0.719602
 0.743588
 0.767575
 0.791562
 0.815549
 0.839535
 0.863522
 0.887509
 0.911496
 0.935482
 0.959469
 0.983456
 1.007442
 1.031429
 1.055416
 1.079403
 1.103389
 1.127376
 1.151363
 1.175349
 1.199336
 1.223323
 1.247310
 1.271296
 1.295283
 1.319270
 1.343256
 1.367243
 1.391230
 1.415217
 1.439203
 1.463190
 1.487177
 1.511163
 1.535150
 1.559137
 1.583124
 1.607110
 1.631097
 1.655084
 1.679070
 1.703057
 1.727044
 1.751031
 1.775017
 1.799004
 1.822991
 1.846977
 1.870964
 1.894951
 1.918937
 1.942924
 1.966911
 1.990898
 2.014884
 2.038871
 2.062858
 2.086844
 2.110831
 2.134818
 2.158804
 2.182791
 2.206778
 2.230764
 2.254751
 2.278737
 2.302724
 2.326711
 2.350697
 2.374684
 0.000000
 0.024230
 0.048460
 0.072691
 0.096921
 0.121151
 0.145381
 0.169612
 0.193842
 0.218072
 0.242302
 0.266533
 0.290763
 0.314993
 0.339223
 0.363454
 0.387684
 0.411914
 0.436144
 0.460375
 0.484605
 0.508835
 0.533065
 0.557296
 0.581526
 0.605756
 0.629986
 0.654217
 0.678447
 0.702677
 0.726907
 0.751138
 0.775368
 0.799598
 0.823828
 0.848058
 0.872289
 0.896519
 0.920749
 0.944979
 0.969210
 0.993440
 1.017670
 1.041900
 1.066131
 1.090361
 1.114591
 1.138821
 1.163052
 1.187282
 1.211512
 1.235742
 1.259973
 1.284203
 1.308433
 1.332663
 1.356894
 1.381124
 1.405354
 1.429584
 1.453814
 1.478045
 1.502275
 1.526505
 1.550735
 1.574966
 1.599196
 1.623426
 1.647656
 1.671887
 1.696117
 1.720347
 1.744577
 1.768807
 1.793038
 1.817268
 1.841498
 1.865728
 1.889958
 1.914189
 1.938419
 1.962649
 1.986879
 2.011110
 2.035340
 2.059570
 2.083800
 2.108030
 2.132260
 2.156491
 2.180721
 2.204951
 2.229181
 2.253411
 2.277642
 2.301872
 2.326102
 2.350332
 2.374562
 2.398792
 0.000000
 0.024476
 0.048952
 0.073429
 0.097905
 0.122381
 0.146857
 0.171334
 0.195810
 0.220286
 0.244762
 0.269239
 0.293715
 0.318191
 0.342667
 0.367144
 0.391620
 0.416096
 0.440572
 0.465048
 0.489525
 0.514001
 0.538477
 0.562953
 0.587430
 0.611906
 0.636382
 0.660858
 0.685335
 0.709811
 0.734287
 0.758763
 0.783239
 0.807716
 0.832192
 0.856668
 0.881144
 0.905621
 0.930097
 0.954573
 0.979049
 1.003526
 1.028002
 1.052478
 1.076954
 1.101430
 1.125907
 1.150383
 1.174859
 1.199335
 1.223812
 1.248288
 1.272764
 1.297240
 1.321717
 1.346193
 1.370669
 1.395145
 1.419621
 1.444098
 1.468574
 1.493050
 1.517526
 1.542003
 1.566479
 1.590955
 1.615431
 1.639907
 1.664384
 1.688860
 1.713336
 1.737812
 1.762289
 1.786765
 1.811241
 1.835717
 1.860193
 1.884670
 1.909146
 1.933622
 1.958098
 1.982574
 2.007051
 2.031527
 2.056003
 2.080479
 2.104955
 2.129431
 2.153908
 2.178384
 2.202860
 2.227336
 2.251812
 2.276288