# vtk DataFile Version 2.0 
Grid
ASCII
DATASET STRUCTURED_GRID
DIMENSIONS 50 50 1
POINTS 2500 float
0.000000 0.000000 0.000000
0.020614 0.000000 0.000000
0.041229 0.000000 0.000000
0.061843 0.000000 0.000000
0.082457 0.000000 0.000000
0.103072 0.000000 0.000000
0.123686 0.000000 0.000000
0.144300 0.000000 0.000000
0.164914 0.000000 0.000000
0.185529 0.000000 0.000000
0.206143 0.000000 0.000000
0.226757 0.000000 0.000000
0.247372 0.000000 0.000000
0.267986 0.000000 0.000000
0.288600 0.000000 0.000000
0.309215 0.000000 0.000000
0.329829 0.000000 0.000000
0.350443 0.000000 0.000000
0.371058 0.000000 0.000000
0.391672 0.000000 0.000000
0.412286 0.000000 0.000000
0.432900 0.000000 0.000000
0.453515 0.000000 0.000000
0.474129 0.000000 0.000000
0.494743 0.000000 0.000000
0.515358 0.000000 0.000000
0.535972 0.000000 0.000000
0.556586 0.000000 0.000000
0.577201 0.000000 0.000000
0.597815 0.000000 0.000000
0.618429 0.000000 0.000000
0.639043 0.000000 0.000000
0.659658 0.000000 0.000000
0.680272 0.000000 0.000000
0.700886 0.000000 0.000000
0.721501 0.000000 0.000000
0.742115 0.000000 0.000000
0.762729 0.000000 0.000000
0.783344 0.000000 0.000000
0.803958 0.000000 0.000000
0.824572 0.000000 0.000000
0.845187 0.000000 0.000000
0.865801 0.000000 0.000000
0.886415 0.000000 0.000000
0.907029 0.000000 0.000000
0.927644 0.000000 0.000000
0.948258 0.000000 0.000000
0.968872 0.000000 0.000000
0.989487 0.000000 0.000000
1.010101 0.000000 0.000000
0.000000 0.010307 0.000000
0.020614 0.010307 0.000000
0.041229 0.010307 0.000000
0.061843 0.010307 0.000000
0.082457 0.010307 0.000000
0.103072 0.010307 0.000000
0.123686 0.010307 0.000000
0.144300 0.010307 0.000000
0.164914 0.010307 0.000000
0.185529 0.010307 0.000000
0.206143 0.010307 0.000000
0.226757 0.010307 0.000000
0.247372 0.010307 0.000000
0.267986 0.010307 0.000000
0.288600 0.010307 0.000000
0.309215 0.010307 0.000000
0.329829 0.010307 0.000000
0.350443 0.010307 0.000000
0.371058 0.010307 0.000000
0.391672 0.010307 0.000000
0.412286 0.010307 0.000000
0.432900 0.010307 0.000000
0.453515 0.010307 0.000000
0.474129 0.010307 0.000000
0.494743 0.010307 0.000000
0.515358 0.010307 0.000000
0.535972 0.010307 0.000000
0.556586 0.010307 0.000000
0.577201 0.010307 0.000000
0.597815 0.010307 0.000000
0.618429 0.010307 0.000000
0.639043 0.010307 0.000000
0.659658 0.010307 0.000000
0.680272 0.010307 0.000000
0.700886 0.010307 0.000000
0.721501 0.010307 0.000000
0.742115 0.010307 0.000000
0.762729 0.010307 0.000000
0.783344 0.010307 0.000000
0.803958 0.010307 0.000000
0.824572 0.010307 0.000000
0.845187 0.010307 0.000000
0.865801 0.010307 0.000000
0.886415 0.010307 0.000000
0.907029 0.010307 0.000000
0.927644 0.010307 0.000000
0.948258 0.010307 0.000000
0.968872 0.010307 0.000000
0.989487 0.010307 0.000000
1.010101 0.010307 0.000000
0.000000 0.020614 0.000000
0.020614 0.020614 0.000000
0.041229 0.020614 0.000000
0.061843 0.020614 0.000000
0.082457 0.020614 0.000000
0.103072 0.020614 0.000000
0.123686 0.020614 0.000000
0.144300 0.020614 0.000000
0.164914 0.020614 0.000000
0.185529 0.020614 0.000000
0.206143 0.020614 0.000000
0.226757 0.020614 0.000000
0.247372 0.020614 0.000000
0.267986 0.020614 0.000000
0.288600 0.020614 0.000000
0.309215 0.020614 0.000000
0.329829 0.020614 0.000000
0.350443 0.020614 0.000000
0.371058 0.020614 0.000000
0.391672 0.020614 0.000000
0.412286 0.020614 0.000000
0.432900 0.020614 0.000000
0.453515 0.020614 0.000000
0.474129 0.020614 0.000000
0.494743 0.020614 0.000000
0.515358 0.020614 0.000000
0.535972 0.020614 0.000000
0.556586 0.020614 0.000000
0.577201 0.020614 0.000000
0.597815 0.020614 0.000000
0.618429 0.020614 0.000000
0.639043 0.020614 0.000000
0.659658 0.020614 0.000000
0.680272 0.020614 0.000000
0.700886 0.020614 0.000000
0.721501 0.020614 0.000000
0.742115 0.020614 0.000000
0.762729 0.020614 0.000000
0.783344 0.020614 0.000000
0.803958 0.020614 0.000000
0.824572 0.020614 0.000000
0.845187 0.020614 0.000000
0.865801 0.020614 0.000000
0.886415 0.020614 0.000000
0.907029 0.020614 0.000000
0.927644 0.020614 0.000000
0.948258 0.020614 0.000000
0.968872 0.020614 0.000000
0.989487 0.020614 0.000000
1.010101 0.020614 0.000000
0.000000 0.030921 0.000000
0.020614 0.030921 0.000000
0.041229 0.030921 0.000000
0.061843 0.030921 0.000000
0.082457 0.030921 0.000000
0.103072 0.030921 0.000000
0.123686 0.030921 0.000000
0.144300 0.030921 0.000000
0.164914 0.030921 0.000000
0.185529 0.030921 0.000000
0.206143 0.030921 0.000000
0.226757 0.030921 0.000000
0.247372 0.030921 0.000000
0.267986 0.030921 0.000000
0.288600 0.030921 0.000000
0.309215 0.030921 0.000000
0.329829 0.030921 0.000000
0.350443 0.030921 0.000000
0.371058 0.030921 0.000000
0.391672 0.030921 0.000000
0.412286 0.030921 0.000000
0.432900 0.030921 0.000000
0.453515 0.030921 0.000000
0.474129 0.030921 0.000000
0.494743 0.030921 0.000000
0.515358 0.030921 0.000000
0.535972 0.030921 0.000000
0.556586 0.030921 0.000000
0.577201 0.030921 0.000000
0.597815 0.030921 0.000000
0.618429 0.030921 0.000000
0.639043 0.030921 0.000000
0.659658 0.030921 0.000000
0.680272 0.030921 0.000000
0.700886 0.030921 0.000000
0.721501 0.030921 0.000000
0.742115 0.030921 0.000000
0.762729 0.030921 0.000000
0.783344 0.030921 0.000000
0.803958 0.030921 0.000000
0.824572 0.030921 0.000000
0.845187 0.030921 0.000000
0.865801 0.030921 0.000000
0.886415 0.030921 0.000000
0.907029 0.030921 0.000000
0.927644 0.030921 0.000000
0.948258 0.030921 0.000000
0.968872 0.030921 0.000000
0.989487 0.030921 0.000000
1.010101 0.030921 0.000000
0.000000 0.041229 0.000000
0.020614 0.041229 0.000000
0.041229 0.041229 0.000000
0.061843 0.041229 0.000000
0.082457 0.041229 0.000000
0.103072 0.041229 0.000000
0.123686 0.041229 0.000000
0.144300 0.041229 0.000000
0.164914 0.041229 0.000000
0.185529 0.041229 0.000000
0.206143 0.041229 0.000000
0.226757 0.041229 0.000000
0.247372 0.041229 0.000000
0.267986 0.041229 0.000000
0.288600 0.041229 0.000000
0.309215 0.041229 0.000000
0.329829 0.041229 0.000000
0.350443 0.041229 0.000000
0.371058 0.041229 0.000000
0.391672 0.041229 0.000000
0.412286 0.041229 0.000000
0.432900 0.041229 0.000000
0.453515 0.041229 0.000000
0.474129 0.041229 0.000000
0.494743 0.041229 0.000000
0.515358 0.041229 0.000000
0.535972 0.041229 0.000000
0.556586 0.041229 0.000000
0.577201 0.041229 0.000000
0.597815 0.041229 0.000000
0.618429 0.041229 0.000000
0.639043 0.041229 0.000000
0.659658 0.041229 0.000000
0.680272 0.041229 0.000000
0.700886 0.041229 0.000000
0.721501 0.041229 0.000000
0.742115 0.041229 0.000000
0.762729 0.041229 0.000000
0.783344 0.041229 0.000000
0.803958 0.041229 0.000000
0.824572 0.041229 0.000000
0.845187 0.041229 0.000000
0.865801 0.041229 0.000000
0.886415 0.041229 0.000000
0.907029 0.041229 0.000000
0.927644 0.041229 0.000000
0.948258 0.041229 0.000000
0.968872 0.041229 0.000000
0.989487 0.041229 0.000000
1.010101 0.041229 0.000000
0.000000 0.051536 0.000000
0.020614 0.051536 0.000000
0.041229 0.051536 0.000000
0.061843 0.051536 0.000000
0.082457 0.051536 0.000000
0.103072 0.051536 0.000000
0.123686 0.051536 0.000000
0.144300 0.051536 0.000000
0.164914 0.051536 0.000000
0.185529 0.051536 0.000000
0.206143 0.051536 0.000000
0.226757 0.051536 0.000000
0.247372 0.051536 0.000000
0.267986 0.051536 0.000000
0.288600 0.051536 0.000000
0.309215 0.051536 0.000000
0.329829 0.051536 0.000000
0.350443 0.051536 0.000000
0.371058 0.051536 0.000000
0.391672 0.051536 0.000000
0.412286 0.051536 0.000000
0.432900 0.051536 0.000000
0.453515 0.051536 0.000000
0.474129 0.051536 0.000000
0.494743 0.051536 0.000000
0.515358 0.051536 0.000000
0.535972 0.051536 0.000000
0.556586 0.051536 0.000000
0.577201 0.051536 0.000000
0.597815 0.051536 0.000000
0.618429 0.051536 0.000000
0.639043 0.051536 0.000000
0.659658 0.051536 0.000000
0.680272 0.051536 0.000000
0.700886 0.051536 0.000000
0.721501 0.051536 0.000000
0.742115 0.051536 0.000000
0.762729 0.051536 0.000000
0.783344 0.051536 0.000000
0.803958 0.051536 0.000000
0.824572 0.051536 0.000000
0.845187 0.051536 0.000000
0.865801 0.051536 0.000000
0.886415 0.051536 0.000000
0.907029 0.051536 0.000000
0.927644 0.051536 0.000000
0.948258 0.051536 0.000000
0.968872 0.051536 0.000000
0.989487 0.051536 0.000000
1.010101 0.051536 0.000000
0.000000 0.061843 0.000000
0.020614 0.061843 0.000000
0.041229 0.061843 0.000000
0.061843 0.061843 0.000000
0.082457 0.061843 0.000000
0.103072 0.061843 0.000000
0.123686 0.061843 0.000000
0.144300 0.061843 0.000000
0.164914 0.061843 0.000000
0.185529 0.061843 0.000000
0.206143 0.061843 0.000000
0.226757 0.061843 0.000000
0.247372 0.061843 0.000000
0.267986 0.061843 0.000000
0.288600 0.061843 0.000000
0.309215 0.061843 0.000000
0.329829 0.061843 0.000000
0.350443 0.061843 0.000000
0.371058 0.061843 0.000000
0.391672 0.061843 0.000000
0.412286 0.061843 0.000000
0.432900 0.061843 0.000000
0.453515 0.061843 0.000000
0.474129 0.061843 0.000000
0.494743 0.061843 0.000000
0.515358 0.061843 0.000000
0.535972 0.061843 0.000000
0.556586 0.061843 0.000000
0.577201 0.061843 0.000000
0.597815 0.061843 0.000000
0.618429 0.061843 0.000000
0.639043 0.061843 0.000000
0.659658 0.061843 0.000000
0.680272 0.061843 0.000000
0.700886 0.061843 0.000000
0.721501 0.061843 0.000000
0.742115 0.061843 0.000000
0.762729 0.061843 0.000000
0.783344 0.061843 0.000000
0.803958 0.061843 0.000000
0.824572 0.061843 0.000000
0.845187 0.061843 0.000000
0.865801 0.061843 0.000000
0.886415 0.061843 0.000000
0.907029 0.061843 0.000000
0.927644 0.061843 0.000000
0.948258 0.061843 0.000000
0.968872 0.061843 0.000000
0.989487 0.061843 0.000000
1.010101 0.061843 0.000000
0.000000 0.072150 0.000000
0.020614 0.072150 0.000000
0.041229 0.072150 0.000000
0.061843 0.072150 0.000000
0.082457 0.072150 0.000000
0.103072 0.072150 0.000000
0.123686 0.072150 0.000000
0.144300 0.072150 0.000000
0.164914 0.072150 0.000000
0.185529 0.072150 0.000000
0.206143 0.072150 0.000000
0.226757 0.072150 0.000000
0.247372 0.072150 0.000000
0.267986 0.072150 0.000000
0.288600 0.072150 0.000000
0.309215 0.072150 0.000000
[...]
POINT_DATA 2500
SCALARS P float 1
LOOKUP_TABLE default
 0.000000
 0.020202
 0.040404
 0.060606
 0.080808
 0.101010
 0.121212
 0.141414
 0.161616
 0.181818
 0.202020
 0.222222
 0.242424
 0.262626
 0.282828
 0.303030
 0.323232
 0.343434
 0.363636
 0.383838
 0.404040
 0.424242
 0.444444
 0.464646
 0.484848
 0.505051
 0.525253
 0.545455
 0.565657
 0.585859
 0.606061
 0.626263
 0.646465
 0.666667
 0.686869
 0.707071
 0.727273
 0.747475
 0.767677
 0.787879
 0.808081
 0.828283
 0.848485
 0.868687
 0.888889
 0.909091
 0.929293
 0.949495
 0.969697
 0.989899
 0.000000
 0.020407
 0.040814
 0.061221
 0.081628
 0.102036
 0.122443
 0.142850
 0.163257
 0.183664
 0.204071
 0.224478
 0.244885
 0.265293
 0.285700
 0.306107
 0.326514
 0.346921
 0.367328
 0.387735
 0.408142
 0.428549
 0.448957
 0.469364
 0.489771
 0.510178
 0.530585
 0.550992
 0.571399
 0.591806
 0.612213
 0.632621
 0.653028
 0.673435
 0.693842
 0.714249
 0.734656
 0.755063
 0.775470
 0.795878
 0.816285
 0.836692
 0.857099
 0.877506
 0.897913
 0.918320
 0.938727
 0.959134
 0.979542
 0.999949
 0.000000
 0.020614
 0.041229
 0.061843
 0.082457
 0.103071
 0.123686
 0.144300
 0.164914
 0.185529
 0.206143
 0.226757
 0.247372
 0.267986
 0.288600
 0.309214
 0.329829
 0.350443
 0.371057
 0.391672
 0.412286
 0.432900
 0.453514
 0.474129
 0.494743
 0.515357
 0.535972
 0.556586
 0.577200
 0.597815
 0.618429
 0.639043
 0.659657
 0.680272
 0.700886
 0.721500
 0.742115
 0.762729
 0.783343
 0.803957
 0.824572
 0.845186
 0.865800
 0.886415
 0.907029
 0.927643
 0.948258
 0.968872
 0.989486
 1.010100
 0.000000
 0.020824
 0.041647
 0.062471
 0.083294
 0.104118
 0.124941
 0.145765
 0.166589
 0.187412
 0.208236
 0.229059
 0.249883
 0.270706
 0.291530
 0.312354
 0.333177
 0.354001
 0.374824
 0.395648
 0.416472
 0.437295
 0.458119
 0.478942
 0.499766
 0.520589
 0.541413
 0.562237
 0.583060
 0.603884
 0.624707
 0.645531
 0.666354
 0.687178
 0.708002
 0.728825
 0.749649
 0.770472
 0.791296
 0.812119
 0.832943
 0.853767
 0.874590
 0.895414
 0.916237
 0.937061
 0.957884
 0.978708
 0.999532
 1.020355
 0.000000
 0.021035
 0.042070
 0.063105
 0.084140
 0.105175
 0.126210
 0.147245
 0.168280
 0.189315
 0.210350
 0.231385
 0.252420
 0.273455
 0.294490
 0.315525
 0.336560
 0.357595
 0.378630
 0.399665
 0.420700
 0.441735
 0.462770
 0.483805
 0.504840
 0.525875
 0.546910
 0.567945
 0.588980
 0.610014
 0.631049
 0.652084
 0.673119
 0.694154
 0.715189
 0.736224
 0.757259
 0.778294
 0.799329
 0.820364
 0.841399
 0.862434
 0.883469
 0.904504
 0.925539
 0.946574
 0.967609
 0.988644
 1.009679
 1.030714
 0.000000
 0.021249
 0.042497
 0.063746
 0.084994
 0.106243
 0.127491
 0.148740
 0.169988
 0.191237
 0.212485
 0.233734
 0.254982
 0.276231
 0.297479
 0.318728
 0.339977
 0.361225
 0.382474
 0.403722
 0.424971
 0.446219
 0.467468
 0.488716
 0.509965
 0.531213
 0.552462
 0.573710
 0.594959
 0.616208
 0.637456
 0.658705
 0.679953
 0.701202
 0.722450
 0.743699
 0.764947
 0.786196
 0.807444
 0.828693
 0.849941
 0.871190
 0.892438
 0.913687
 0.934936
 0.956184
 0.977433
 0.998681
 1.019930
 1.041178
 0.000000
 0.021464
 0.042929
 0.064393
 0.085857
 0.107321
 0.128786
 0.150250
 0.171714
 0.193178
 0.214643
 0.236107
 0.257571
 0.279035
 0.300500
 0.321964
 0.343428
 0.364892
 0.386357
 0.407821
 0.429285
 0.450749
 0.472214
 0.493678
 0.515142
 0.536606
 0.558071
 0.579535
 0.600999
 0.622463
 0.643928
 0.665392
 0.686856
 0.708320
 0.729785
 0.751249
 0.772713
 0.794177
 0.815642
 0.837106
 0.858570
 0.880034
 0.901499
 0.922963
 0.944427
 0.965891
 0.987356
 1.008820
 1.030284
 1.051748
 0.000000
 0.021682
 0.043364
 0.065046
 0.086729
 0.108411
 0.130093
 0.151775
 0.173457
 0.195139
 0.216822
 0.238504
 0.260186
 0.281868
 0.303550
 0.325232
 0.346915
 0.368597
 0.390279
 0.411961
 0.433643
 0.455325
 0.477008
 0.498690
 0.520372
 0.542054
 0.563736
 0.585418
 0.607101
 0.628783
 0.650465
 0.672147
 0.693829
 0.715511
 0.737194
 0.758876
 0.780558
 0.802240
 0.823922
 0.845604
 0.867287
 0.888969
 0.910651
 0.932333
 0.954015
 0.975697
 0.997380
 1.019062
 1.040744
 1.062426
 0.000000
 0.021902
 0.043805
 0.065707
 0.087609
 0.109511
 0.131414
 0.153316
 0.175218
 0.197121
 0.219023
 0.240925
 0.262827
 0.284730
 0.306632
 0.328534
 0.350437
 0.372339
 0.394241
 0.416143
 0.438046
 0.459948
 0.481850
 0.503753
 0.525655
 0.547557
 0.569459
 0.591362
 0.613264
 0.635166
 0.657069
 0.678971
 0.700873
 0.722775
 0.744678
 0.766580
 0.788482
 0.810385
 0.832287
 0.854189
 0.876092
 0.897994
 0.919896
 0.941798
 0.963701
 0.985603
 1.007505
 1.029408
 1.051310
 1.073212
 0.000000
 0.022125
 0.044249
 0.066374
 0.088499
 0.110623
 0.132748
 0.154873
 0.176997
 0.199122
 0.221246
 0.243371
 0.265496
 0.287620
 0.309745
 0.331870
 0.353994
 0.376119
 0.398244
 0.420368
 0.442493
 0.464618
 0.486742
 0.508867
 0.530991
 0.553116
 0.575241
 0.597365
 0.619490
 0.641615
 0.663739
 0.685864
 0.707989
 0.730113
 0.752238
 0.774363
 0.796487
 0.818612
 0.840737
 0.862861
 0.884986
 0.907110
 0.929235
 0.951360
 0.973484
 0.995609
 1.017734
 1.039858
 1.061983
 1.084108
 0.000000
 0.022349
 0.044699
 0.067048
 0.089397
 0.111746
 0.134096
 0.156445
 0.178794
 0.201143
 0.223493
 0.245842
 0.268191
 0.290540
 0.312890
 0.335239
 0.357588
 0.379937
 0.402287
 0.424636
 0.446985
 0.469334
 0.491684
 0.514033
 0.536382
 0.558731
 0.581081
 0.603430
 0.625779
 0.648129
 0.670478
 0.692827
 0.715176
 0.737526
 0.759875
 0.782224
 0.804573
 0.826923
 0.849272
 0.871621
 0.893970
 0.916320
 0.938669
 0.961018
 0.983367
 1.005717
 1.028066
 1.050415
 1.072764
 1.095114
 0.000000
 0.022576
 0.045152
 0.067728
 0.090305
 0.112881
 0.135457
 0.158033
 0.180609
 0.203185
 0.225762
 0.248338
 0.270914
 0.293490
 0.316066
 0.338642
 0.361218
 0.383795
 0.406371
 0.428947
 0.451523
 0.474099
 0.496675
 0.519252
 0.541828
 0.564404
 0.586980
 0.609556
 0.632132
 0.654708
 0.677285
 0.699861
 0.722437
 0.745013
 0.767589
 0.790165
 0.812742
 0.835318
 0.857894
 0.880470
 0.903046
 0.925622
 0.948198
 0.970775
 0.993351
 1.015927
 1.038503
 1.061079
 1.083655
 1.106232
 0.000000
 0.022805
 0.045611
 0.068416
 0.091221
 0.114027
 0.136832
 0.159637
 0.182443
 0.205248
 0.228054
 0.250859
 0.273664
 0.296470
 0.319275
 0.342080
 0.364886
 0.387691
 0.410496
 0.433302
 0.456107
 0.478912
 0.501718
 0.524523
 0.547328
 0.570134
 0.592939
 0.615745
 0.638550
 0.661355
 0.684161
 0.706966
 0.729771
 0.752577
 0.775382
 0.798187
 0.820993
 0.843798
 0.866603
 0.889409
 0.912214
 0.935019
 0.957825
 0.980630
 1.003436
 1.026241
 1.049046
 1.071852
 1.094657
 1.117462
 0.000000
 0.023037
 0.046074
 0.069111
 0.092148
 0.115184
 0.138221
 0.161258
 0.184295
 0.207332
 0.230369
 0.253406
 0.276443
 0.299479
 0.322516
 0.345553
 0.368590
 0.391627
 0.414664
 0.437701
 0.460738
 0.483774
 0.506811
 0.529848
 0.552885
 0.575922
 0.598959
 0.621996
 0.645033
 0.668069
 0.691106
 0.714143
 0.737180
 0.760217
 0.783254
 0.806291
 0.829328
 0.852365
 0.875401
 0.898438
 0.921475
 0.944512
 0.967549
 0.990586
 1.013623
 1.036660
 1.059696
 1.082733
 1.105770
 1.128807
 0.000000
 0.023271
 0.046542
 0.069812
 0.093083
 0.116354
 0.139625
 0.162895
 0.186166
 0.209437
 0.232708
 0.255978
 0.279249
 0.302520
 0.325791
 0.349061
 0.372332
 0.395603
 0.418874
 0.442144
 0.465415
 0.488686
 0.511957
 0.535227
 0.558498
 0.581769
 0.605040
 0.628310
 0.651581
 0.674852
 0.698123
 0.721393
 0.744664
 0.767935
 0.791206
 0.814476
 0.837747
 0.861018
 0.884289
 0.907559
 0.930830
 0.954101
 0.977372
 1.000642
 1.023913
 1.047184
 1.070455
 1.093725
 1.116996
 1.140267
 0.000000
 0.023507
 0.047014
 0.070521
 0.094028
 0.117535
 0.141042
 0.164549
 0.188056
 0.211563
 0.235070
 0.258577
 0.282084
 0.305591
 0.329098
 0.352605
 0.376112
 0.399619
 0.423126
 0.446633
 0.470140
 0.493647
 0.517154
 0.540661
 0.564168
 0.587675
 0.611182
 0.634689
 0.658196
 0.681703
 0.705210
 0.728717
 0.752224
 0.775731
 0.799238
 0.822745
 0.846252
 0.869759
 0.893266
 0.916773
 0.940280
 0.963787
 0.987294
 1.010801
 1.034308
 1.057815
 1.081322
 1.104829
 1.128336
 1.151843
 0.000000
 0.023746
 0.047491
 0.071237
 0.094983
 0.118728
 0.142474
 0.166220
 0.189965
 0.213711
 0.237457
 0.261202
 0.284948
 0.308693
 0.332439
 0.356185
 0.379930
 0.403676
 0.427422
 0.451167
 0.474913
 0.498659
 0.522404
 0.546150
 0.569896
 0.593641
 0.617387
 0.641133
 0.664878
 0.688624
 0.712370
 0.736115
 0.759861
 0.783607
 0.807352
 0.831098
 0.854843
 0.878589
 0.902335
 0.926080
 0.949826
 0.973572
 0.997317
 1.021063
 1.044809
 1.068554
 1.092300
 1.116046
 1.139791
 1.163537
 0.000000
 0.023987
 0.047973
 0.071960
 0.095947
 0.119934
 0.143920
 0.167907
 0.191894
 0.215881
 0.239867
 0.263854
 0.287841
 0.311827
 0.335814
 0.359801
 0.383788
 0.407774
 0.431761
 0.455748
 0.479734
 0.503721
 0.527708
 0.551695
 0.575681
 0.599668
 0.623655
 0.647642
 0.671628
 0.695615
 0.719602
 0.743588
 0.767575
 0.791562
 0.815549
 0.839535
 0.863522
 0.887509
 0.911496
 0.935482
 0.959469
 0.983456
 1.007442
 1.031429
 1.055416
 1.079403
 1.103389
 1.127376
 1.151363
 1.175349
 0.000000
 0.024230
 0.048460
 0.072691
 0.096921
 0.121151
 0.145381
 0.169612
 0.193842
 0.218072
 0.242302
 0.266533
 0.290763
 0.314993
 0.339223
 0.363454
 0.387684
 0.411914
 0.436144
 0.460375
 0.484605
 0.508835
 0.533065
 0.557296
 0.581526
 0.605756
 0.629986
 0.654217
 0.678447
 0.702677
 0.726907
 0.751138
 0.775368
 0.799598
 0.823828
 0.848058
 0.872289
 0.896519
 0.920749
 0.944979
 0.969210
 0.993440
 1.017670
 1.041900
 1.066131
 1.090361
 1.114591
 1.138821
 1.163052
 1.187282
 0.000000
 0.024476
 0.048952
 0.073429
 0.097905
 0.122381
 0.146857
 0.171334
 0.195810
 0.220286
 0.244762
 0.269239
 0.293715
 0.318191
 0.342667
 0.367144
 0.391620
 0.416096
 0.440572
 0.465048
 0.489525
 0.514001
 0.538477
 0.562953
 0.587430
 0.611906
 0.636382
 0.660858
 0.685335
 0.709811
 0.734287
 0.758763
 0.783239
 0.807716
 0.832192
 0.856668
 0.881144
 0.905621
 0.930097
 0.954573
 0.979049
 1.003526
 1.028002
 1.052478
 1.076954
 1.101430
 1.125907
 1.150383
 1.174859
 1.199335
 0.000000
 0.024725
 0.049449
 0.074174
 0.098899
 0.123624
 0.148348
 0.173073
 0.197798
 0.222523
 0.247247
 0.271972
 0.296697
 0.321421
 0.346146
 0.370871
 0.395596
 0.420320
 0.445045
 0.469770
 0.494494
 0.519219
 0.543944
 0.568669
 0.593393
 0.618118
 0.642843
 0.667567
 0.692292
 0.717017
 0.741742
 0.766466
 0.791191
 0.815916
 0.840641
 0.865365
 0.890090
 0.914815
 0.939539
 0.964264
 0.988989
 1.013714
 1.038438
 1.063163
 1.087888
 1.112612
 1.137337
 1.162062
 1.186787
 1.211511
 0.000000
 0.024976
 0.049951
 0.074927
 0.099903
 0.124879
 0.149854
 0.174830
 0.199806
 0.224782
 0.249757
 0.274733
 0.299709
 0.324685
 0.349660
 0.374636
 0.399612
 0.424587
 0.449563
 0.474539
 0.499515
 0.524490
 0.549466
 0.574442
 0.599418
 0.624393
 0.649369
 0.674345
 0.699321
 0.724296
 0.749272
 0.774248
 0.799223
 0.824199
 0.849175
 0.874151
 0.899126
 0.924102
 0.949078
 0.974054
 0.999029
 1.024005
 1.048981
 1.073956
 1.098932
 1.123908
 1.148884
 1.173859
 1.198835
 1.223811
 0.000000
 0.025229
 0.050459
 0.075688
 0.100917
 0.126146
 0.151376
 0.176605
 0.201834
 0.227064
 0.252293
 0.277522
 0.302752
 0.327981
 0.353210
 0.378439
 0.403669
 0.428898
 0.454127
 0.479357
 0.504586
 0.529815
 0.555044
 0.580274
 0.605503
 0.630732
 0.655962
 0.681191
 0.706420
 0.731649
 0.756879
 0.782108
 0.807337
 0.832567
 0.857796
 0.883025
 0.908255
 0.933484
 0.958713
 0.983942
 1.009172
 1.034401
 1.059630
 1.084860
 1.110089
 1.135318
 1.160547
 1.185777
 1.211006
 1.236235
 0.000000
 0.025485
 0.050971
 0.076456
 0.101942
 0.127427
 0.152913
 0.178398
 0.203883
 0.229369
 0.254854
 0.280340
 0.305825
 0.331311
 0.356796
 0.382281
 0.407767
 0.433252
 0.458738
 0.484223
 0.509709
 0.535194
 0.560679
 0.586165
 0.611650
 0.637136
 0.662621
 0.688106
 0.713592
 0.739077
 0.764563
 0.790048
 0.815534
 0.841019
 0.866504
 0.891990
 0.917475
 0.942961
 0.968446
 0.993932
 1.019417
 1.044902
 1.070388
 1.095873
 1.121359
 1.146844
 1.172330
 1.197815
 1.223300
 1.248786
 0.000000
 0.025744
 0.051488
 0.077232
 0.102977
 0.128721
 0.154465
 0.180209
 0.205953
 0.231697
 0.257442
 0.283186
 0.308930
 0.334674
 0.360418
 0.386162
 0.411907
 0.437651
 0.463395
 0.489139
 0.514883
 0.540627
 0.566371
 0.592116
 0.617860
 0.643604
 0.669348
 0.695092
 0.720836
 0.746581
 0.772325
 0.798069
 0.823813
 0.849557
 0.875301
 0.901046
 0.926790
 0.952534
 0.978278
 1.004022
 1.029766
 1.055510
 1.081255
 1.106999
 1.132743
 1.158487
 1.184231
 1.209975
 1.235720
 1.261464
 0.000000
 0.026006
 0.052011
 0.078017
 0.104022
 0.130028
 0.156033
 0.182039
 0.208044
 0.234050
 0.260055
 0.286061
 0.312066
 0.338072
 0.364077
 0.390083
 0.416088
 0.442094
 0.468099
 0.494105
 0.520110
 0.546116
 0.572121
 0.598127
 0.624132
 0.650138
 0.676143
 0.702149
 0.728155
 0.754160
 0.780166
 0.806171
 0.832177
 0.858182
 0.884188
 0.910193
 0.936199
 0.962204
 0.988210
 1.014215
 1.040221
 1.066226
 1.092232
 1.118237
 1.144243
 1.170248
 1.196254
 1.222259
 1.248265
 1.274270
 0.000000
 0.026270
 0.052539
 0.078809
 0.105078
 0.131348
 0.157617
 0.183887
 0.210156
 0.236426
 0.262695
 0.288965
 0.315234
 0.341504
 0.367773
 0.394043
 0.420313
 0.446582
 0.472852
 0.499121
 0.525391
 0.551660
 0.577930
 0.604199
 0.630469
 0.656738
 0.683008
 0.709277
 0.735547
 0.761816
 0.788086
 0.814356
 0.840625
 0.866895
 0.893164
 0.919434
 0.945703
 0.971973
 0.998242
 1.024512
 1.050781
 1.077051
 1.103320
 1.129590
 1.155859
 1.182129
 1.208398
 1.234668
 1.260938
 1.287207
 0.000000
 0.026536
 0.053072
 0.079609
 0.106145
 0.132681
 0.159217
 0.185754
 0.212290
 0.238826
 0.265362
 0.291898
 0.318435
 0.344971
 0.371507
 0.398043
 0.424580
 0.451116
 0.477652
 0.504188
 0.530725
 0.557261
 0.583797
 0.610333
 0.636869
 0.663406
 0.689942
 0.716478
 0.743014
 0.769551
 0.796087
 0.822623
 0.849159
 0.875695
 0.902232
 0.928768
 0.955304
 0.981840
 1.008377
 1.034913
 1.061449
 1.087985
 1.114521
 1.141058
 1.167594
 1.194130
 1.220666
 1.247203
 1.273739
 1.300275
 0.000000
 0.026806
 0.053611
 0.080417
 0.107223
 0.134028
 0.160834
 0.187639
 0.214445
 0.241251
 0.268056
 0.294862
 0.321668
 0.348473
 0.375279
 0.402084
 0.428890
 0.455696
 0.482501
 0.509307
 0.536113
 0.562918
 0.589724
 0.616529
 0.643335
 0.670141
 0.696946
 0.723752
 0.750558
 0.777363
 0.804169
 0.830974
 0.857780
 0.884586
 0.911391
 0.938197
 0.965003
 0.991808
 1.018614
 1.045419
 1.072225
 1.099031
 1.125836
 1.152642
 1.179448
 1.206253
 1.233059
 1.259864
 1.286670
 1.313476
 0.000000
 0.027078
 0.054156
 0.081233
 0.108311
 0.135389
 0.162467
 0.189544
 0.216622
 0.243700
 0.270778
 0.297855
 0.324933
 0.352011
 0.379089
 0.406166
 0.433244
 0.460322
 0.487400
 0.514478
 0.541555
 0.568633
 0.595711
 0.622789
 0.649866
 0.676944
 0.704022
 0.731100
 0.758177
 0.785255
 0.812333
 0.839411
 0.866488
 0.893566
 0.920644
 0.947722
 0.974800
 1.001877
 1.028955
 1.056033
 1.083111
 1.110188
 1.137266
 1.164344
 1.191422
 1.218499
 1.245577
 1.272655
 1.299733
 1.326810
 0.000000
 0.027353
 0.054705
 0.082058
 0.109411
 0.136763
 0.164116
 0.191469
 0.218821
 0.246174
 0.273527
 0.300879
 0.328232
 0.355585
 0.382937
 0.410290
 0.437643
 0.464995
 0.492348
 0.519701
 0.547053
 0.574406
 0.601759
 0.629111
 0.656464
 0.683817
 0.711169
 0.738522
 0.765875
 0.793227
 0.820580
 0.847933
 0.875285
 0.902638
 0.929991
 0.957343
 0.984696
 1.012049
 1.039401
 1.066754
 1.094107
 1.121459
 1.148812
 1.176165
 1.203517
 1.230870
 1.258222
 1.285575
 1.312928
 1.340280
 0.000000
 0.027630
 0.055261
 0.082891
 0.110521
 0.138152
 0.165782
 0.193412
 0.221043
 0.248673
 0.276304
 0.303934
 0.331564
 0.359195
 0.386825
 0.414455
 0.442086
 0.469716
 0.497346
 0.524977
 0.552607
 0.580237
 0.607868
 0.635498
 0.663128
 0.690759
 0.718389
 0.746020
 0.773650
 0.801280
 0.828911
 0.856541
 0.884171
 0.911802
 0.939432
 0.967062
 0.994693
 1.022323
 1.049953
 1.077584
 1.105214
 1.132844
 1.160475
 1.188105
 1.215736
 1.243366
 1.270996
 1.298627
 1.326257
 1.353887
 0.000000
 0.027911
 0.055822
 0.083733
 0.111643
 0.139554
 0.167465
 0.195376
 0.223287
 0.251198
 0.279109
 0.307019
 0.334930
 0.362841
 0.390752
 0.418663
 0.446574
 0.474485
 0.502396
 0.530306
 0.558217
 0.586128
 0.614039
 0.641950
 0.669861
 0.697772
 0.725682
 0.753593
 0.781504
 0.809415
 0.837326
 0.865237
 0.893148
 0.921058
 0.948969
 0.976880
 1.004791
 1.032702
 1.060613
 1.088524
 1.116434
 1.144345
 1.172256
 1.200167
 1.228078
 1.255989
 1.283900
 1.311810
 1.339721
 1.367632
 0.000000
 0.028194
 0.056388
 0.084583
 0.112777
 0.140971
 0.169165
 0.197360
 0.225554
 0.253748
 0.281942
 0.310136
 0.338331
 0.366525
 0.394719
 0.422913
 0.451108
 0.479302
 0.507496
 0.535690
 0.563884
 0.592079
 0.620273
 0.648467
 0.676661
 0.704855
 0.733050
 0.761244
 0.789438
 0.817632
 0.845827
 0.874021
 0.902215
 0.930409
 0.958603
 0.986798
 1.014992
 1.043186
 1.071380
 1.099575
 1.127769
 1.155963
 1.184157
 1.212351
 1.240546
 1.268740
 1.296934
 1.325128
 1.353322
 1.381517
 0.000000
 0.028480
 0.056961
 0.085441
 0.113922
 0.142402
 0.170883
 0.199363
 0.227844
 0.256324
 0.284805
 0.313285
 0.341765
 0.370246
 0.398726
 0.427207
 0.455687
 0.484168
 0.512648
 0.541129
 0.569609
 0.598090
 0.626570
 0.655050
 0.683531
 0.712011
 0.740492
 0.768972
 0.797453
 0.825933
 0.854414
 0.882894
 0.911374
 0.939855
 0.968335
 0.996816
 1.025296
 1.053777
 1.082257
 1.110738
 1.139218
 1.167699
 1.196179
 1.224659
 1.253140
 1.281620
 1.310101
 1.338581
 1.367062
 1.395542
 0.000000
 0.028770
 0.057539
 0.086309
 0.115078
 0.143848
 0.172618
 0.201387
 0.230157
 0.258926
 0.287696
 0.316466
 0.345235
 0.374005
 0.402774
 0.431544
 0.460313
 0.489083
 0.517853
 0.546622
 0.575392
 0.604161
 0.632931
 0.661701
 0.690470
 0.719240
 0.748009
 0.776779
 0.805549
 0.834318
 0.863088
 0.891857
 0.920627
 0.949397
 0.978166
 1.006936
 1.035705
 1.064475
 1.093244
 1.122014
 1.150784
 1.179553
 1.208323
 1.237092
 1.265862
 1.294632
 1.323401
 1.352171
 1.380940
 1.409710
 0.000000
 0.029062
 0.058123
 0.087185
 0.116247
 0.145308
 0.174370
 0.203432
 0.232493
 0.261555
 0.290617
 0.319678
 0.348740
 0.377802
 0.406863
 0.435925
 0.464987
 0.494048
 0.523110
 0.552172
 0.581233
 0.610295
 0.639357
 0.668418
 0.697480
 0.726542
 0.755603
 0.784665
 0.813727
 0.842788
 0.871850
 0.900912
 0.929973
 0.959035
 0.988097
 1.017158
 1.046220
 1.075282
 1.104343
 1.133405
 1.162467
 1.191528
 1.220590
 1.249652
 1.278713
 1.307775
 1.336837
 1.365898
 1.394960
 1.424022
 0.000000
 0.029357
 0.058713
 0.088070
 0.117427
 0.146784
 0.176140
 0.205497
 0.234854
 0.264210
 0.293567
 0.322924
 0.352280
 0.381637
 0.410994
 0.440351
 0.469707
 0.499064
 0.528421
 0.557777
 0.587134
 0.616491
 0.645848
 0.675204
 0.704561
 0.733918
 0.763274
 0.792631
 0.821988
 0.851345
 0.880701
 0.910058
 0.939415
 0.968771
 0.998128
 1.027485
 1.056841
 1.086198
 1.115555
 1.144912
 1.174268
 1.203625
 1.232982
 1.262338
 1.291695
 1.321052
 1.350408
 1.379765
 1.409122
 1.438479
 0.000000
 0.029655
 0.059309
 0.088964
 0.118619
 0.148274
 0.177928
 0.207583
 0.237238
 0.266893
 0.296547
 0.326202
 0.355857
 0.385512
 0.415166
 0.444821
 0.474476
 0.504131
 0.533785
 0.563440
 0.593095
 0.622750
 0.652404
 0.682059
 0.711714
 0.741369
 0.771023
 0.800678
 0.830333
 0.859988
 0.889642
 0.919297
 0.948952
 0.978606
 1.008261
 1.037916
 1.067571
 1.097225
 1.126880
 1.156535
 1.186190
 1.215844
 1.245499
 1.275154
 1.304809
 1.334463
 1.364118
 1.393773
 1.423428
 1.453082
 0.000000
 0.029956
 0.059912
 0.089867
 0.119823
 0.149779
 0.179735
 0.209691
 0.239646
 0.269602
 0.299558
 0.329514
 0.359470
 0.389425
 0.419381
 0.449337
 0.479293
 0.509249
 0.539204
 0.569160
 0.599116
 0.629072
 0.659028
 0.688983
 0.718939
 0.748895
 0.778851
 0.808807
 0.838762
 0.868718
 0.898674
 0.928630
 0.958586
 0.988541
 1.018497
 1.048453
 1.078409
 1.108365
 1.138321
 1.168276
 1.198232
 1.228188
 1.258144
 1.288099