# vtk DataFile Version 2.0 
Grid
ASCII
DATASET STRUCTURED_GRID
DIMENSIONS 50 50 1
POINTS 2500 float
0.000000 0.000000 0.000000
0.040816 0.000000 0.000000
0.081633 0.000000 0.000000
0.122449 0.000000 0.000000
0.163265 0.000000 0.000000
0.204082 0.000000 0.000000
0.244898 0.000000 0.000000
0.285714 0.000000 0.000000
0.326531 0.000000 0.000000
0.367347 0.000000 0.000000
0.408163 0.000000 0.000000
0.448980 0.000000 0.000000
0.489796 0.000000 0.000000
0.530612 0.000000 0.000000
0.571429 0.000000 0.000000
0.612245 0.000000 0.000000
0.653061 0.000000 0.000000
0.693878 0.000000 0.000000
0.734694 0.000000 0.000000
0.775510 0.000000 0.000000
0.816327 0.000000 0.000000
0.857143 0.000000 0.000000
0.897959 0.000000 0.000000
0.938776 0.000000 0.000000
0.979592 0.000000 0.000000
1.020408 0.000000 0.000000
1.061224 0.000000 0.000000
1.102041 0.000000 0.000000
1.142857 0.000000 0.000000
1.183673 0.000000 0.000000
1.224490 0.000000 0.000000
1.265306 0.000000 0.000000
1.306122 0.000000 0.000000
1.346939 0.000000 0.000000
1.387755 0.000000 0.000000
1.428571 0.000000 0.000000
1.469388 0.000000 0.000000
1.510204 0.000000 0.000000
1.551020 0.000000 0.000000
1.591837 0.000000 0.000000
1.632653 0.000000 0.000000
1.673469 0.000000 0.000000
1.714286 0.000000 0.000000
1.755102 0.000000 0.000000
1.795918 0.000000 0.000000
1.836735 0.000000 0.000000
1.877551 0.000000 0.000000
1.918367 0.000000 0.000000
1.959184 0.000000 0.000000
2.000000 0.000000 0.000000
0.000000 0.020408 0.000000
0.040816 0.020408 0.000000
0.081633 0.020408 0.000000
0.122449 0.020408 0.000000
0.163265 0.020408 0.000000
0.204082 0.020408 0.000000
0.244898 0.020408 0.000000
0.285714 0.020408 0.000000
0.326531 0.020408 0.000000
0.367347 0.020408 0.000000
0.408163 0.020408 0.000000
0.448980 0.020408 0.000000
0.489796 0.020408 0.000000
0.530612 0.020408 0.000000
0.571429 0.020408 0.000000
0.612245 0.020408 0.000000
0.653061 0.020408 0.000000
0.693878 0.020408 0.000000
0.734694 0.020408 0.000000
0.775510 0.020408 0.000000
0.816327 0.020408 0.000000
0.857143 0.020408 0.000000
0.897959 0.020408 0.000000
0.938776 0.020408 0.000000
0.979592 0.020408 0.000000
1.020408 0.020408 0.000000
1.061224 0.020408 0.000000
1.102041 0.020408 0.000000
1.142857 0.020408 0.000000
1.183673 0.020408 0.000000
1.224490 0.020408 0.000000
1.265306 0.020408 0.000000
1.306122 0.020408 0.000000
1.346939 0.020408 0.000000
1.387755 0.020408 0.000000
1.428571 0.020408 0.000000
1.469388 0.020408 0.000000
1.510204 0.020408 0.000000
1.551020 0.020408 0.000000
1.591837 0.020408 0.000000
1.632653 0.020408 0.000000
1.673469 0.020408 0.000000
1.714286 0.020408 0.000000
1.755102 0.020408 0.000000
1.795918 0.020408 0.000000
1.836735 0.020408 0.000000
1.877551 0.020408 0.000000
1.918367 0.020408 0.000000
1.959184 0.020408 0.000000
2.000000 0.020408 0.000000
0.000000 0.040816 0.000000
0.040816 0.040816 0.000000
0.081633 0.040816 0.000000
0.122449 0.040816 0.000000
0.163265 0.040816 0.000000
0.204082 0.040816 0.000000
0.244898 0.040816 0.000000
0.285714 0.040816 0.000000
0.326531 0.040816 0.000000
0.367347 0.040816 0.000000
0.408163 0.040816 0.000000
0.448980 0.040816 0.000000
0.489796 0.040816 0.000000
0.530612 0.040816 0.000000
0.571429 0.040816 0.000000
0.612245 0.040816 0.000000
0.653061 0.040816 0.000000
0.693878 0.040816 0.000000
0.734694 0.040816 0.000000
0.775510 0.040816 0.000000
0.816327 0.040816 0.000000
0.857143 0.040816 0.000000
0.897959 0.040816 0.000000
0.938776 0.040816 0.000000
0.979592 0.040816 0.000000
1.020408 0.040816 0.000000
1.061224 0.040816 0.000000
1.102041 0.040816 0.000000
1.142857 0.040816 0.000000
1.183673 0.040816 0.000000
1.224490 0.040816 0.000000
1.265306 0.040816 0.000000
1.306122 0.040816 0.000000
1.346939 0.040816 0.000000
1.387755 0.040816 0.000000
1.428571 0.040816 0.000000
1.469388 0.040816 0.000000
1.510204 0.040816 0.000000
1.551020 0.040816 0.000000
1.591837 0.040816 0.000000
1.632653 0.040816 0.000000
1.673469 0.040816 0.000000
1.714286 0.040816 0.000000
1.755102 0.040816 0.000000
1.795918 0.040816 0.000000
1.836735 0.040816 0.000000
1.877551 0.040816 0.000000
1.918367 0.040816 0.000000
1.959184 0.040816 0.000000
2.000000 0.040816 0.000000
0.000000 0.061224 0.000000
0.040816 0.061224 0.000000
0.081633 0.061224 0.000000
0.122449 0.061224 0.000000
0.163265 0.061224 0.000000
0.204082 0.061224 0.000000
0.244898 0.061224 0.000000
0.285714 0.061224 0.000000
0.326531 0.061224 0.000000
0.367347 0.061224 0.000000
0.408163 0.061224 0.000000
0.448980 0.061224 0.000000
0.489796 0.061224 0.000000
0.530612 0.061224 0.000000
0.571429 0.061224 0.000000
0.612245 0.061224 0.000000
0.653061 0.061224 0.000000
0.693878 0.061224 0.000000
0.734694 0.061224 0.000000
0.775510 0.061224 0.000000
0.816327 0.061224 0.000000
0.857143 0.061224 0.000000
0.897959 0.061224 0.000000
0.938776 0.061224 0.000000
0.979592 0.061224 0.000000
1.020408 0.061224 0.000000
1.061224 0.061224 0.000000
1.102041 0.061224 0.000000
1.142857 0.061224 0.000000
1.183673 0.061224 0.000000
1.224490 0.061224 0.000000
1.265306 0.061224 0.000000
1.306122 0.061224 0.000000
1.346939 0.061224 0.000000
1.387755 0.061224 0.000000
1.428571 0.061224 0.000000
1.469388 0.061224 0.000000
1.510204 0.061224 0.000000
1.551020 0.061224 0.000000
1.591837 0.061224 0.000000
1.632653 0.061224 0.000000
1.673469 0.061224 0.000000
1.714286 0.061224 0.000000
1.755102 0.061224 0.000000
1.795918 0.061224 0.000000
1.836735 0.061224 0.000000
1.877551 0.061224 0.000000
1.918367 0.061224 0.000000
1.959184 0.061224 0.000000
2.000000 0.061224 0.000000
0.000000 0.081633 0.000000
0.040816 0.081633 0.000000
0.081633 0.081633 0.000000
0.122449 0.081633 0.000000
0.163265 0.081633 0.000000
0.204082 0.081633 0.000000
0.244898 0.081633 0.000000
0.285714 0.081633 0.000000
0.326531 0.081633 0.000000
0.367347 0.081633 0.000000
0.408163 0.081633 0.000000
0.448980 0.081633 0.000000
0.489796 0.081633 0.000000
0.530612 0.081633 0.000000
0.571429 0.081633 0.000000
0.612245 0.081633 0.000000
0.653061 0.081633 0.000000
0.693878 0.081633 0.000000
0.734694 0.081633 0.000000
0.775510 0.081633 0.000000
0.816327 0.081633 0.000000
0.857143 0.081633 0.000000
0.897959 0.081633 0.000000
0.938776 0.081633 0.000000
0.979592 0.081633 0.000000
1.020408 0.081633 0.000000
1.061224 0.081633 0.000000
1.102041 0.081633 0.000000
1.142857 0.081633 0.000000
1.183673 0.081633 0.000000
1.224490 0.081633 0.000000
1.265306 0.081633 0.000000
1.306122 0.081633 0.000000
1.346939 0.081633 0.000000
1.387755 0.081633 0.000000
1.428571 0.081633 0.000000
1.469388 0.081633 0.000000
1.510204 0.081633 0.000000
1.551020 0.081633 0.000000
1.591837 0.081633 0.000000
1.632653 0.081633 0.000000
1.673469 0.081633 0.000000
1.714286 0.081633 0.000000
1.755102 0.081633 0.000000
1.795918 0.081633 0.000000
1.836735 0.081633 0.000000
1.877551 0.081633 0.000000
1.918367 0.081633 0.000000
1.959184 0.081633 0.000000
2.000000 0.081633 0.000000
0.000000 0.102041 0.000000
0.040816 0.102041 0.000000
0.081633 0.102041 0.000000
0.122449 0.102041 0.000000
0.163265 0.102041 0.000000
0.204082 0.102041 0.000000
0.244898 0.102041 0.000000
0.285714 0.102041 0.000000
0.326531 0.102041 0.000000
0.367347 0.102041 0.000000
0.408163 0.102041 0.000000
0.448980 0.102041 0.000000
0.489796 0.102041 0.000000
0.530612 0.102041 0.000000
0.571429 0.102041 0.000000
0.612245 0.102041 0.000000
0.653061 0.102041 0.000000
0.693878 0.102041 0.000000
0.734694 0.102041 0.000000
0.775510 0.102041 0.000000
0.816327 0.102041 0.000000
0.857143 0.102041 0.000000
0.897959 0.102041 0.000000
0.938776 0.102041 0.000000
0.979592 0.102041 0.000000
1.020408 0.102041 0.000000
1.061224 0.102041 0.000000
1.102041 0.102041 0.000000
1.142857 0.102041 0.000000
1.183673 0.102041 0.000000
1.224490 0.102041 0.000000
1.265306 0.102041 0.000000
1.306122 0.102041 0.000000
1.346939 0.102041 0.000000
1.387755 0.102041 0.000000
1.428571 0.102041 0.000000
1.469388 0.102041 0.000000
1.510204 0.102041 0.000000
1.551020 0.102041 0.000000
1.591837 0.102041 0.000000
1.632653 0.102041 0.000000
1.673469 0.102041 0.000000
1.714286 0.102041 0.000000
1.755102 0.102041 0.000000
1.795918 0.102041 0.000000
1.836735 0.102041 0.000000
1.877551 0.102041 0.000000
1.918367 0.102041 0.000000
1.959184 0.102041 0.000000
2.000000 0.102041 0.000000
0.000000 0.122449 0.000000
0.040816 0.122449 0.000000
0.081633 0.122449 0.000000
0.122449 0.122449 0.000000
0.163265 0.122449 0.000000
0.204082 0.122449 0.000000
0.244898 0.122449 0.000000
0.285714 0.122449 0.000000
0.326531 0.122449 0.000000
0.367347 0.122449 0.000000
0.408163 0.122449 0.000000
0.448980 0.122449 0.000000
0.489796 0.122449 0.000000
0.530612 0.122449 0.000000
0.571429 0.122449 0.000000
0.612245 0.122449 0.000000
0.653061 0.122449 0.000000
0.693878 0.122449 0.000000
0.734694 0.122449 0.000000
0.775510 0.122449 0.000000
0.816327 0.122449 0.000000
0.857143 0.122449 0.000000
0.897959 0.122449 0.000000
0.938776 0.122449 0.000000
0.979592 0.122449 0.000000
1.020408 0.122449 0.000000
1.061224 0.122449 0.000000
1.102041 0.122449 0.000000
1.142857 0.122449 0.000000
1.183673 0.122449 0.000000
1.224490 0.122449 0.000000
1.265306 0.122449 0.000000
1.306122 0.122449 0.000000
1.346939 0.122449 0.000000
1.387755 0.122449 0.000000
1.428571 0.122449 0.000000
1.469388 0.122449 0.000000
1.510204 0.122449 0.000000
1.551020 0.122449 0.000000
1.591837 0.122449 0.000000
1.632653 0.122449 0.000000
1.673469 0.122449 0.000000
1.714286 0.122449 0.000000
1.755102 0.122449 0.000000
1.795918 0.122449 0.000000
1.836735 0.122449 0.000000
1.877551 0.122449 0.000000
1.918367 0.122449 0.000000
1.959184 0.122449 0.000000
2.000000 0.122449 0.000000
0.000000 0.142857 0.000000
0.040816 0.142857 0.000000
0.081633 0.142857 0.000000
0.122449 0.142857 0.000000
0.163265 0.142857 0.000000
0.204082 0.142857 0.000000
0.244898 0.142857 0.000000
0.285714 0.142857 0.000000
0.326531 0.142857 0.000000
0.367347 0.142857 0.000000
0.408163 0.142857 0.000000
0.448980 0.142857 0.000000
0.489796 0.142857 0.000000
0.530612 0.142857 0.000000
0.571429 0.142857 0.000000
0.612245 0.142857 0.000000
[...]
POINT_DATA 2500
SCALARS P float 1
LOOKUP_TABLE default
 0.000000
 0.040816
 0.081633
 0.122449
 0.163265
 0.204082
 0.244898
 0.285714
 0.326531
 0.367347
 0.408163
 0.448980
 0.489796
 0.530612
 0.571429
 0.612245
 0.653061
 0.693878
 0.734694
 0.775510
 0.816327
 0.857143
 0.897959
 0.938776
 0.979592
 1.020408
 1.061224
 1.102041
 1.142857
 1.183673
 1.224490
 1.265306
 1.306122
 1.346939
 1.387755
 1.428571
 1.469388
 1.510204
 1.551020
 1.591837
 1.632653
 1.673469
 1.714286
 1.755102
 1.795918
 1.836735
 1.877551
 1.918367
 1.959184
 2.000000
 0.000000
 0.041658
 0.083316
 0.124974
 0.166632
 0.208289
 0.249947
 0.291605
 0.333263
 0.374921
 0.416579
 0.458237
 0.499895
 0.541553
 0.583210
 0.624868
 0.666526
 0.708184
 0.749842
 0.791500
 0.833158
 0.874816
 0.916474
 0.958131
 0.999789
 1.041447
 1.083105
 1.124763
 1.166421
 1.208079
 1.249737
 1.291395
 1.333052
 1.374710
 1.416368
 1.458026
 1.499684
 1.541342
 1.583000
 1.624657
 1.666315
 1.707973
 1.749631
 1.791289
 1.832947
 1.874605
 1.916262
 1.957920
 1.999578
 2.041236
 0.000000
 0.042517
 0.085034
 0.127550
 0.170067
 0.212584
 0.255101
 0.297618
 0.340134
 0.382651
 0.425168
 0.467685
 0.510202
 0.552718
 0.595235
 0.637752
 0.680269
 0.722786
 0.765302
 0.807819
 0.850336
 0.892853
 0.935370
 0.977886
 1.020403
 1.062920
 1.105437
 1.147954
 1.190470
 1.232987
 1.275504
 1.318021
 1.360538
 1.403054
 1.445571
 1.488088
 1.530605
 1.573121
 1.615638
 1.658155
 1.700672
 1.743188
 1.785705
 1.828222
 1.870738
 1.913255
 1.955772
 1.998288
 2.040805
 2.083322
 0.000000
 0.043393
 0.086787
 0.130180
 0.173574
 0.216967
 0.260361
 0.303754
 0.347147
 0.390541
 0.433934
 0.477328
 0.520721
 0.564115
 0.607508
 0.650901
 0.694295
 0.737688
 0.781082
 0.824475
 0.867869
 0.911262
 0.954655
 0.998049
 1.041442
 1.084836
 1.128229
 1.171622
 1.215016
 1.258409
 1.301803
 1.345196
 1.388589
 1.431983
 1.475376
 1.518770
 1.562163
 1.605556
 1.648950
 1.692343
 1.735736
 1.779130
 1.822523
 1.865916
 1.909309
 1.952703
 1.996096
 2.039489
 2.082882
 2.126275
 0.000000
 0.044288
 0.088576
 0.132864
 0.177152
 0.221441
 0.265729
 0.310017
 0.354305
 0.398593
 0.442881
 0.487169
 0.531457
 0.575746
 0.620034
 0.664322
 0.708610
 0.752898
 0.797186
 0.841474
 0.885762
 0.930051
 0.974339
 1.018627
 1.062915
 1.107203
 1.151491
 1.195779
 1.240067
 1.284355
 1.328643
 1.372931
 1.417220
 1.461508
 1.505796
 1.550084
 1.594372
 1.638660
 1.682948
 1.727236
 1.771524
 1.815812
 1.860100
 1.904388
 1.948676
 1.992963
 2.037251
 2.081539
 2.125827
 2.170114
 0.000000
 0.045201
 0.090403
 0.135604
 0.180805
 0.226006
 0.271208
 0.316409
 0.361610
 0.406811
 0.452013
 0.497214
 0.542415
 0.587616
 0.632818
 0.678019
 0.723220
 0.768421
 0.813623
 0.858824
 0.904025
 0.949226
 0.994428
 1.039629
 1.084830
 1.130031
 1.175233
 1.220434
 1.265635
 1.310836
 1.356038
 1.401239
 1.446440
 1.491641
 1.536842
 1.582044
 1.627245
 1.672446
 1.717647
 1.762848
 1.808049
 1.853250
 1.898451
 1.943652
 1.988853
 2.034054
 2.079255
 2.124456
 2.169657
 2.214857
 0.000000
 0.046133
 0.092266
 0.138400
 0.184533
 0.230666
 0.276799
 0.322933
 0.369066
 0.415199
 0.461332
 0.507466
 0.553599
 0.599732
 0.645865
 0.691998
 0.738132
 0.784265
 0.830398
 0.876531
 0.922665
 0.968798
 1.014931
 1.061064
 1.107197
 1.153331
 1.199464
 1.245597
 1.291730
 1.337863
 1.383997
 1.430130
 1.476263
 1.522396
 1.568529
 1.614662
 1.660795
 1.706928
 1.753062
 1.799195
 1.845328
 1.891461
 1.937594
 1.983727
 2.029859
 2.075992
 2.122125
 2.168258
 2.214390
 2.260523
 0.000000
 0.047084
 0.094169
 0.141253
 0.188338
 0.235422
 0.282506
 0.329591
 0.376675
 0.423760
 0.470844
 0.517929
 0.565013
 0.612097
 0.659182
 0.706266
 0.753351
 0.800435
 0.847519
 0.894604
 0.941688
 0.988773
 1.035857
 1.082941
 1.130026
 1.177110
 1.224194
 1.271279
 1.318363
 1.365448
 1.412532
 1.459616
 1.506701
 1.553785
 1.600869
 1.647953
 1.695038
 1.742122
 1.789206
 1.836290
 1.883375
 1.930459
 1.977543
 2.024627
 2.071711
 2.118795
 2.165879
 2.212963
 2.260046
 2.307130
 0.000000
 0.048055
 0.096110
 0.144166
 0.192221
 0.240276
 0.288331
 0.336386
 0.384442
 0.432497
 0.480552
 0.528607
 0.576662
 0.624718
 0.672773
 0.720828
 0.768883
 0.816938
 0.864994
 0.913049
 0.961104
 1.009159
 1.057214
 1.105270
 1.153325
 1.201380
 1.249435
 1.297490
 1.345545
 1.393600
 1.441656
 1.489711
 1.537766
 1.585821
 1.633876
 1.681931
 1.729986
 1.778041
 1.826096
 1.874151
 1.922206
 1.970261
 2.018316
 2.066371
 2.114425
 2.162480
 2.210535
 2.258589
 2.306644
 2.354698
 0.000000
 0.049046
 0.098092
 0.147138
 0.196184
 0.245230
 0.294276
 0.343322
 0.392368
 0.441414
 0.490460
 0.539506
 0.588552
 0.637598
 0.686644
 0.735690
 0.784736
 0.833782
 0.882828
 0.931874
 0.980920
 1.029966
 1.079012
 1.128058
 1.177104
 1.226150
 1.275196
 1.324242
 1.373288
 1.422334
 1.471380
 1.520426
 1.569472
 1.618517
 1.667563
 1.716609
 1.765655
 1.814701
 1.863747
 1.912792
 1.961838
 2.010884
 2.059929
 2.108975
 2.158020
 2.207066
 2.256111
 2.305157
 2.354202
 2.403247
 0.000000
 0.050057
 0.100114
 0.150172
 0.200229
 0.250286
 0.300343
 0.350401
 0.400458
 0.450515
 0.500572
 0.550630
 0.600687
 0.650744
 0.700801
 0.750859
 0.800916
 0.850973
 0.901030
 0.951088
 1.001145
 1.051202
 1.101259
 1.151316
 1.201374
 1.251431
 1.301488
 1.351545
 1.401602
 1.451660
 1.501717
 1.551774
 1.601831
 1.651888
 1.701945
 1.752002
 1.802059
 1.852116
 1.902173
 1.952230
 2.002287
 2.052344
 2.102401
 2.152458
 2.202514
 2.252571
 2.302628
 2.352684
 2.402740
 2.452797
 0.000000
 0.051089
 0.102179
 0.153268
 0.204357
 0.255447
 0.306536
 0.357625
 0.408715
 0.459804
 0.510893
 0.561983
 0.613072
 0.664161
 0.715251
 0.766340
 0.817429
 0.868518
 0.919608
 0.970697
 1.021786
 1.072876
 1.123965
 1.175054
 1.226144
 1.277233
 1.328322
 1.379411
 1.430501
 1.481590
 1.532679
 1.583768
 1.634857
 1.685947
 1.737036
 1.788125
 1.839214
 1.890303
 1.941392
 1.992481
 2.043570
 2.094659
 2.145748
 2.196837
 2.247926
 2.299014
 2.350103
 2.401191
 2.452280
 2.503368
 0.000000
 0.052143
 0.104285
 0.156428
 0.208571
 0.260713
 0.312856
 0.364999
 0.417141
 0.469284
 0.521427
 0.573570
 0.625712
 0.677855
 0.729998
 0.782140
 0.834283
 0.886426
 0.938568
 0.990711
 1.042854
 1.094996
 1.147139
 1.199282
 1.251424
 1.303567
 1.355709
 1.407852
 1.459995
 1.512137
 1.564280
 1.616422
 1.668565
 1.720707
 1.772850
 1.824992
 1.877135
 1.929277
 1.981420
 2.033562
 2.085704
 2.137847
 2.189989
 2.242131
 2.294273
 2.346415
 2.398557
 2.450699
 2.502840
 2.554982
 0.000000
 0.053218
 0.106436
 0.159653
 0.212871
 0.266089
 0.319307
 0.372524
 0.425742
 0.478960
 0.532178
 0.585395
 0.638613
 0.691831
 0.745049
 0.798266
 0.851484
 0.904702
 0.957920
 1.011137
 1.064355
 1.117573
 1.170791
 1.224008
 1.277226
 1.330444
 1.383661
 1.436879
 1.490097
 1.543314
 1.596532
 1.649750
 1.702967
 1.756185
 1.809403
 1.862620
 1.915838
 1.969055
 2.022273
 2.075490
 2.128707
 2.181925
 2.235142
 2.288359
 2.341576
 2.394793
 2.448010
 2.501227
 2.554444
 2.607660
 0.000000
 0.054315
 0.108630
 0.162945
 0.217260
 0.271575
 0.325890
 0.380205
 0.434520
 0.488835
 0.543150
 0.597465
 0.651780
 0.706095
 0.760410
 0.814725
 0.869040
 0.923355
 0.977670
 1.031985
 1.086300
 1.140615
 1.194930
 1.249245
 1.303560
 1.357875
 1.412190
 1.466505
 1.520819
 1.575134
 1.629449
 1.683764
 1.738079
 1.792394
 1.846709
 1.901023
 1.955338
 2.009653
 2.063968
 2.118282
 2.172597
 2.226911
 2.281226
 2.335540
 2.389854
 2.444169
 2.498483
 2.552797
 2.607111
 2.661424
 0.000000
 0.055435
 0.110870
 0.166305
 0.221739
 0.277174
 0.332609
 0.388044
 0.443479
 0.498914
 0.554349
 0.609784
 0.665218
 0.720653
 0.776088
 0.831523
 0.886958
 0.942393
 0.997828
 1.053262
 1.108697
 1.164132
 1.219567
 1.275002
 1.330436
 1.385871
 1.441306
 1.496741
 1.552176
 1.607610
 1.663045
 1.718480
 1.773915
 1.829349
 1.884784
 1.940219
 1.995653
 2.051088
 2.106522
 2.161957
 2.217391
 2.272826
 2.328260
 2.383694
 2.439128
 2.494562
 2.549996
 2.605430
 2.660864
 2.716297
 0.000000
 0.056578
 0.113156
 0.169733
 0.226311
 0.282889
 0.339467
 0.396045
 0.452623
 0.509200
 0.565778
 0.622356
 0.678934
 0.735512
 0.792089
 0.848667
 0.905245
 0.961823
 1.018401
 1.074978
 1.131556
 1.188134
 1.244712
 1.301290
 1.357867
 1.414445
 1.471023
 1.527601
 1.584178
 1.640756
 1.697334
 1.753911
 1.810489
 1.867067
 1.923644
 1.980222
 2.036799
 2.093377
 2.149954
 2.206532
 2.263109
 2.319686
 2.376264
 2.432841
 2.489418
 2.545995
 2.602572
 2.659148
 2.715725
 2.772301
 0.000000
 0.057744
 0.115489
 0.173233
 0.230977
 0.288722
 0.346466
 0.404210
 0.461955
 0.519699
 0.577443
 0.635188
 0.692932
 0.750676
 0.808421
 0.866165
 0.923909
 0.981654
 1.039398
 1.097142
 1.154887
 1.212631
 1.270375
 1.328119
 1.385864
 1.443608
 1.501352
 1.559096
 1.616841
 1.674585
 1.732329
 1.790073
 1.847817
 1.905562
 1.963306
 2.021050
 2.078794
 2.136538
 2.194282
 2.252026
 2.309770
 2.367513
 2.425257
 2.483001
 2.540744
 2.598488
 2.656231
 2.713974
 2.771717
 2.829460
 0.000000
 0.058935
 0.117870
 0.176805
 0.235740
 0.294675
 0.353609
 0.412544
 0.471479
 0.530414
 0.589349
 0.648284
 0.707219
 0.766154
 0.825089
 0.884023
 0.942958
 1.001893
 1.060828
 1.119763
 1.178698
 1.237633
 1.296568
 1.355502
 1.414437
 1.473372
 1.532307
 1.591242
 1.650177
 1.709111
 1.768046
 1.826981
 1.885916
 1.944850
 2.003785
 2.062720
 2.121654
 2.180589
 2.239523
 2.298458
 2.357392
 2.416326
 2.475261
 2.534195
 2.593129
 2.652063
 2.710997
 2.769931
 2.828864
 2.887798
 0.000000
 0.060150
 0.120300
 0.180450
 0.240600
 0.300750
 0.360900
 0.421050
 0.481200
 0.541350
 0.601500
 0.661650
 0.721800
 0.781950
 0.842100
 0.902250
 0.962400
 1.022550
 1.082700
 1.142850
 1.203000
 1.263150
 1.323300
 1.383450
 1.443600
 1.503750
 1.563900
 1.624050
 1.684200
 1.744350
 1.804499
 1.864649
 1.924799
 1.984949
 2.045099
 2.105248
 2.165398
 2.225548
 2.285697
 2.345847
 2.405996
 2.466146
 2.526295
 2.586445
 2.646594
 2.706743
 2.766892
 2.827040
 2.887189
 2.947338
 0.000000
 0.061390
 0.122780
 0.184171
 0.245561
 0.306951
 0.368341
 0.429731
 0.491121
 0.552512
 0.613902
 0.675292
 0.736682
 0.798072
 0.859462
 0.920853
 0.982243
 1.043633
 1.105023
 1.166413
 1.227803
 1.289193
 1.350584
 1.411974
 1.473364
 1.534754
 1.596144
 1.657534
 1.718924
 1.780314
 1.841704
 1.903094
 1.964484
 2.025874
 2.087264
 2.148654
 2.210044
 2.271434
 2.332824
 2.394213
 2.455603
 2.516992
 2.578382
 2.639771
 2.701161
 2.762550
 2.823939
 2.885328
 2.946717
 3.008105
 0.000000
 0.062656
 0.125312
 0.187968
 0.250624
 0.313280
 0.375935
 0.438591
 0.501247
 0.563903
 0.626559
 0.689215
 0.751871
 0.814527
 0.877183
 0.939839
 1.002494
 1.065150
 1.127806
 1.190462
 1.253118
 1.315774
 1.378430
 1.441086
 1.503741
 1.566397
 1.629053
 1.691709
 1.754365
 1.817020
 1.879676
 1.942332
 2.004988
 2.067643
 2.130299
 2.192955
 2.255610
 2.318266
 2.380921
 2.443577
 2.506232
 2.568887
 2.631543
 2.694198
 2.756853
 2.819508
 2.882163
 2.944817
 3.007472
 3.070126
 0.000000
 0.063948
 0.127895
 0.191843
 0.255791
 0.319739
 0.383686
 0.447634
 0.511582
 0.575530
 0.639477
 0.703425
 0.767373
 0.831321
 0.895268
 0.959216
 1.023164
 1.087111
 1.151059
 1.215007
 1.278955
 1.342902
 1.406850
 1.470798
 1.534745
 1.598693
 1.662641
 1.726588
 1.790536
 1.854484
 1.918431
 1.982379
 2.046326
 2.110274
 2.174221
 2.238169
 2.302116
 2.366063
 2.430011
 2.493958
 2.557905
 2.621852
 2.685799
 2.749746
 2.813693
 2.877640
 2.941586
 3.005533
 3.069479
 3.133425
 0.000000
 0.065266
 0.130532
 0.195799
 0.261065
 0.326331
 0.391597
 0.456863
 0.522130
 0.587396
 0.652662
 0.717928
 0.783194
 0.848461
 0.913727
 0.978993
 1.044259
 1.109525
 1.174791
 1.240058
 1.305324
 1.370590
 1.435856
 1.501122
 1.566388
 1.631655
 1.696921
 1.762187
 1.827453
 1.892719
 1.957985
 2.023251
 2.088517
 2.153783
 2.219049
 2.284315
 2.349581
 2.414846
 2.480112
 2.545378
 2.610644
 2.675909
 2.741175
 2.806440
 2.871705
 2.936971
 3.002236
 3.067500
 3.132765
 3.198030
 0.000000
 0.066612
 0.133224
 0.199836
 0.266447
 0.333059
 0.399671
 0.466283
 0.532895
 0.599507
 0.666118
 0.732730
 0.799342
 0.865954
 0.932566
 0.999178
 1.065789
 1.132401
 1.199013
 1.265625
 1.332237
 1.398849
 1.465460
 1.532072
 1.598684
 1.665296
 1.731907
 1.798519
 1.865131
 1.931743
 1.998354
 2.064966
 2.131578
 2.198189
 2.264801
 2.331412
 2.398024
 2.464635
 2.531247
 2.597858
 2.664469
 2.731081
 2.797692
 2.864303
 2.930914
 2.997524
 3.064135
 3.130746
 3.197356
 3.263966
 0.000000
 0.067985
 0.135970
 0.203956
 0.271941
 0.339926
 0.407911
 0.475897
 0.543882
 0.611867
 0.679852
 0.747838
 0.815823
 0.883808
 0.951793
 1.019778
 1.087764
 1.155749
 1.223734
 1.291719
 1.359704
 1.427690
 1.495675
 1.563660
 1.631645
 1.699630
 1.767615
 1.835601
 1.903586
 1.971571
 2.039556
 2.107541
 2.175526
 2.243511
 2.311496
 2.379481
 2.447466
 2.515451
 2.583435
 2.651420
 2.719405
 2.787389
 2.855374
 2.923358
 2.991343
 3.059327
 3.127311
 3.195295
 3.263279
 3.331262
 0.000000
 0.069387
 0.138774
 0.208161
 0.277548
 0.346935
 0.416322
 0.485709
 0.555095
 0.624482
 0.693869
 0.763256
 0.832643
 0.902030
 0.971417
 1.040804
 1.110191
 1.179578
 1.248965
 1.318352
 1.387739
 1.457125
 1.526512
 1.595899
 1.665286
 1.734673
 1.804060
 1.873447
 1.942833
 2.012220
 2.081607
 2.150994
 2.220381
 2.289767
 2.359154
 2.428541
 2.497927
 2.567314
 2.636700
 2.706087
 2.775473
 2.844859
 2.914246
 2.983632
 3.053018
 3.122404
 3.191789
 3.261175
 3.330560
 3.399946
 0.000000
 0.070818
 0.141635
 0.212453
 0.283270
 0.354088
 0.424905
 0.495723
 0.566540
 0.637358
 0.708175
 0.778993
 0.849810
 0.920628
 0.991445
 1.062263
 1.133081
 1.203898
 1.274716
 1.345533
 1.416351
 1.487168
 1.557986
 1.628803
 1.699621
 1.770438
 1.841255
 1.912073
 1.982890
 2.053708
 2.124525
 2.195342
 2.266160
 2.336977
 2.407794
 2.478612
 2.549429
 2.620246
 2.691063
 2.761880
 2.832697
 2.903514
 2.974331
 3.045148
 3.115964
 3.186781
 3.257597
 3.328413
 3.399229
 3.470045
 0.000000
 0.072278
 0.144555
 0.216833
 0.289111
 0.361388
 0.433666
 0.505943
 0.578221
 0.650499
 0.722776
 0.795054
 0.867332
 0.939609
 1.011887
 1.084164
 1.156442
 1.228720
 1.300997
 1.373275
 1.445553
 1.517830
 1.590108
 1.662385
 1.734663
 1.806940
 1.879218
 1.951496
 2.023773
 2.096051
 2.168328
 2.240605
 2.312883
 2.385160
 2.457438
 2.529715
 2.601992
 2.674270
 2.746547
 2.818824
 2.891101
 2.963378
 3.035655
 3.107932
 3.180209
 3.252485
 3.324762
 3.397038
 3.469314
 3.541590
 0.000000
 0.073768
 0.147536
 0.221304
 0.295071
 0.368839
 0.442607
 0.516375
 0.590143
 0.663911
 0.737678
 0.811446
 0.885214
 0.958982
 1.032750
 1.106517
 1.180285
 1.254053
 1.327821
 1.401589
 1.475357
 1.549124
 1.622892
 1.696660
 1.770428
 1.844195
 1.917963
 1.991731
 2.065499
 2.139266
 2.213034
 2.286802
 2.360569
 2.434337
 2.508105
 2.581872
 2.655640
 2.729407
 2.803175
 2.876942
 2.950709
 3.024476
 3.098243
 3.172011
 3.245777
 3.319544
 3.393311
 3.467077
 3.540844
 3.614610
 0.000000
 0.075289
 0.150578
 0.225866
 0.301155
 0.376444
 0.451733
 0.527021
 0.602310
 0.677599
 0.752888
 0.828176
 0.903465
 0.978754
 1.054043
 1.129331
 1.204620
 1.279909
 1.355198
 1.430486
 1.505775
 1.581064
 1.656352
 1.731641
 1.806930
 1.882219
 1.957507
 2.032796
 2.108085
 2.183373
 2.258662
 2.333950
 2.409239
 2.484528
 2.559816
 2.635105
 2.710393
 2.785681
 2.860970
 2.936258
 3.011546
 3.086834
 3.162122
 3.237410
 3.312698
 3.387986
 3.463274
 3.538561
 3.613848
 3.689135
 0.000000
 0.076841
 0.153682
 0.230523
 0.307364
 0.384205
 0.461046
 0.537887
 0.614728
 0.691569
 0.768410
 0.845251
 0.922092
 0.998934
 1.075775
 1.152616
 1.229457
 1.306298
 1.383139
 1.459980
 1.536821
 1.613662
 1.690503
 1.767344
 1.844185
 1.921026
 1.997867
 2.074708
 2.151548
 2.228389
 2.305230
 2.382071
 2.458912
 2.535753
 2.612594
 2.689434
 2.766275
 2.843116
 2.919956
 2.996797
 3.073638
 3.150478
 3.227318
 3.304159
 3.380999
 3.457839
 3.534679
 3.611518
 3.688358
 3.765197
 0.000000
 0.078425
 0.156851
 0.235276
 0.313701
 0.392127
 0.470552
 0.548977
 0.627403
 0.705828
 0.784253
 0.862679
 0.941104
 1.019529
 1.097955
 1.176380
 1.254805
 1.333230
 1.411656
 1.490081
 1.568506
 1.646932
 1.725357
 1.803782
 1.882207
 1.960633
 2.039058
 2.117483
 2.195908
 2.274334
 2.352759
 2.431184
 2.509609
 2.588034
 2.666459
 2.744884
 2.823309
 2.901734
 2.980159
 3.058584
 3.137009
 3.215434
 3.293858
 3.372283
 3.450707
 3.529132
 3.607556
 3.685980
 3.764404
 3.842827
 0.000000
 0.080042
 0.160085
 0.240127
 0.320169
 0.400211
 0.480254
 0.560296
 0.640338
 0.720380
 0.800423
 0.880465
 0.960507
 1.040550
 1.120592
 1.200634
 1.280676
 1.360719
 1.440761
 1.520803
 1.600845
 1.680888
 1.760930
 1.840972
 1.921014
 2.001056
 2.081099
 2.161141
 2.241183
 2.321225
 2.401267
 2.481309
 2.561352
 2.641394
 2.721436
 2.801478
 2.881520
 2.961562
 3.041604
 3.121645
 3.201687
 3.281729
 3.361770
 3.441812
 3.521853
 3.601895
 3.681936
 3.761977
 3.842018
 3.922058
 0.000000
 0.081693
 0.163385
 0.245078
 0.326770
 0.408463
 0.490155
 0.571848
 0.653540
 0.735233
 0.816926
 0.898618
 0.980311
 1.062003
 1.143696
 1.225388
 1.307081
 1.388773
 1.470466
 1.552159
 1.633851
 1.715544
 1.797236
 1.878929
 1.960621
 2.042314
 2.124006
 2.205699
 2.287391
 2.369083
 2.450776
 2.532468
 2.614161
 2.695853
 2.777545
 2.859238
 2.940930
 3.022622
 3.104314
 3.186007
 3.267699
 3.349391
 3.431083
 3.512774
 3.594466
 3.676158
 3.757849
 3.839541
 3.921232
 4.002923
 0.000000
 0.083377
 0.166754
 0.250131
 0.333507
 0.416884
 0.500261
 0.583638
 0.667015
 0.750392
 0.833769
 0.917146
 1.000522
 1.083899
 1.167276
 1.250653
 1.334030
 1.417407
 1.500784
 1.584160
 1.667537
 1.750914
 1.834291
 1.917668
 2.001045
 2.084421
 2.167798
 2.251175
 2.334552
 2.417929
 2.501305
 2.584682
 2.668059
 2.751435
 2.834812
 2.918189
 3.001565
 3.084942
 3.168318
 3.251695
 3.335071
 3.418448
 3.501824
 3.585200
 3.668576
 3.751952
 3.835328
 3.918703
 4.002079
 4.085454
 0.000000
 0.085096
 0.170192
 0.255288
 0.340384
 0.425480
 0.510575
 0.595671
 0.680767
 0.765863
 0.850959
 0.936055
 1.021151
 1.106247
 1.191343
 1.276439
 1.361534
 1.446630
 1.531726
 1.616822
 1.701918
 1.787014
 1.872110
 1.957206
 2.042301
 2.127397
 2.212493
 2.297589
 2.382685
 2.467781
 2.552876
 2.637972
 2.723068
 2.808164
 2.893259
 2.978355
 3.063451
 3.148546
 3.233642
 3.318737
 3.403833
 3.488928
 3.574024
 3.659119
 3.744214
 3.829309
 3.914404
 3.999499
 4.084593
 4.169687
 0.000000
 0.086850
 0.173701
 0.260551
 0.347402
 0.434252
 0.521102
 0.607953
 0.694803
 0.781653
 0.868504
 0.955354
 1.042205
 1.129055
 1.215905
 1.302756
 1.389606
 1.476456
 1.563307
 1.650157
 1.737008
 1.823858
 1.910708
 1.997559
 2.084409
 2.171259
 2.258110
 2.344960
 2.431810
 2.518660
 2.605511
 2.692361
 2.779211
 2.866061
 2.952912
 3.039762
 3.126612
 3.213462
 3.300312
 3.387162
 3.474012
 3.560862
 3.647712
 3.734562
 3.821411
 3.908261
 3.995110
 4.081959
 4.168808
 4.255657
 0.000000
 0.088641
 0.177282
 0.265923
 0.354564
 0.443205
 0.531846
 0.620487
 0.709128
 0.797769
 0.886410
 0.975051
 1.063692
 1.152333
 1.240974
 1.329615
 1.418256
 1.506897
 1.595539
 1.684180
 1.772821
 1.861462
 1.950103
 2.038744
 2.127385
 2.216026
 2.304666
 2.393307
 2.481948
 2.570589
 2.659230
 2.747871
 2.836512
 2.925153
 3.013794
 3.102435
 3.191075
 3.279716
 3.368357
 3.456998
 3.545638
 3.634279
 3.722919
 3.811560
 3.900200
 3.988840
 4.077480
 4.166120
 4.254760
 4.343400
 0.000000
 0.090469
 0.180937
 0.271406
 0.361874
 0.452343
 0.542812
 0.633280
 0.723749
 0.814217
 0.904686
 0.995155
 1.085623
 1.176092
 1.266560
 1.357029
 1.447498
 1.537966
 1.628435
 1.718903
 1.809372
 1.899840
 1.990309
 2.080778
 2.171246
 2.261715
 2.352183
 2.442652
 2.533120
 2.623589
 2.714057
 2.804526
 2.894994
 2.985463
 3.075931
 3.166400
 3.256868
 3.347336
 3.437805
 3.528273
 3.618741
 3.709209
 3.799678
 3.890146