# vtk DataFile Version 2.0 
Grid
ASCII
DATASET STRUCTURED_GRID
DIMENSIONS 50 50 1
POINTS 2500 float
1.010101 0.000000 0.000000
1.030715 0.000000 0.000000
1.051330 0.000000 0.000000
1.071944 0.000000 0.000000
1.092558 0.000000 0.000000
1.113173 0.000000 0.000000
1.133787 0.000000 0.000000
1.154401 0.000000 0.000000
1.175015 0.000000 0.000000
1.195630 0.000000 0.000000
1.216244 0.000000 0.000000
1.236858 0.000000 0.000000
1.257473 0.000000 0.000000
1.278087 0.000000 0.000000
1.298701 0.000000 0.000000
1.319316 0.000000 0.000000
1.339930 0.000000 0.000000
1.360544 0.000000 0.000000
1.381159 0.000000 0.000000
1.401773 0.000000 0.000000
1.422387 0.000000 0.000000
1.443001 0.000000 0.000000
1.463616 0.000000 0.000000
1.484230 0.000000 0.000000
1.504844 0.000000 0.000000
1.525459 0.000000 0.000000
1.546073 0.000000 0.000000
1.566687 0.000000 0.000000
1.587302 0.000000 0.000000
1.607916 0.000000 0.000000
1.628530 0.000000 0.000000
1.649145 0.000000 0.000000
1.669759 0.000000 0.000000
1.690373 0.000000 0.000000
1.710987 0.000000 0.000000
1.731602 0.000000 0.000000
1.752216 0.000000 0.000000
1.772830 0.000000 0.000000
1.793445 0.000000 0.000000
1.814059 0.000000 0.000000
1.834673 0.000000 0.000000
1.855288 0.000000 0.000000
1.875902 0.000000 0.000000
1.896516 0.000000 0.000000
1.917130 0.000000 0.000000
1.937745 0.000000 0.000000
1.958359 0.000000 0.000000
1.978973 0.000000 0.000000
1.999588 0.000000 0.000000
2.020202 0.000000 0.000000
1.010101 0.010307 0.000000
1.030715 0.010307 0.000000
1.051330 0.010307 0.000000
1.071944 0.010307 0.000000
1.092558 0.010307 0.000000
1.113173 0.010307 0.000000
1.133787 0.010307 0.000000
1.154401 0.010307 0.000000
1.175015 0.010307 0.000000
1.195630 0.010307 0.000000
1.216244 0.010307 0.000000
1.236858 0.010307 0.000000
1.257473 0.010307 0.000000
1.278087 0.010307 0.000000
1.298701 0.010307 0.000000
1.319316 0.010307 0.000000
1.339930 0.010307 0.000000
1.360544 0.010307 0.000000
1.381159 0.010307 0.000000
1.401773 0.010307 0.000000
1.422387 0.010307 0.000000
1.443001 0.010307 0.000000
1.463616 0.010307 0.000000
1.484230 0.010307 0.000000
1.504844 0.010307 0.000000
1.525459 0.010307 0.000000
1.546073 0.010307 0.000000
1.566687 0.010307 0.000000
1.587302 0.010307 0.000000
1.607916 0.010307 0.000000
1.628530 0.010307 0.000000
1.649145 0.010307 0.000000
1.669759 0.010307 0.000000
1.690373 0.010307 0.000000
1.710987 0.010307 0.000000
1.731602 0.010307 0.000000
1.752216 0.010307 0.000000
1.772830 0.010307 0.000000
1.793445 0.010307 0.000000
1.814059 0.010307 0.000000
1.834673 0.010307 0.000000
1.855288 0.010307 0.000000
1.875902 0.010307 0.000000
1.896516 0.010307 0.000000
1.917130 0.010307 0.000000
1.937745 0.010307 0.000000
1.958359 0.010307 0.000000
1.978973 0.010307 0.000000
1.999588 0.010307 0.000000
2.020202 0.010307 0.000000
1.010101 0.020614 0.000000
1.030715 0.020614 0.000000
1.051330 0.020614 0.000000
1.071944 0.020614 0.000000
1.092558 0.020614 0.000000
1.113173 0.020614 0.000000
1.133787 0.020614 0.000000
1.154401 0.020614 0.000000
1.175015 0.020614 0.000000
1.195630 0.020614 0.000000
1.216244 0.020614 0.000000
1.236858 0.020614 0.000000
1.257473 0.020614 0.000000
1.278087 0.020614 0.000000
1.298701 0.020614 0.000000
1.319316 0.020614 0.000000
1.339930 0.020614 0.000000
1.360544 0.020614 0.000000
1.381159 0.020614 0.000000
1.401773 0.020614 0.000000
1.422387 0.020614 0.000000
1.443001 0.020614 0.000000
1.463616 0.020614 0.000000
1.484230 0.020614 0.000000
1.504844 0.020614 0.000000
1.525459 0.020614 0.000000
1.546073 0.020614 0.000000
1.566687 0.020614 0.000000
1.587302 0.020614 0.000000
1.607916 0.020614 0.000000
1.628530 0.020614 0.000000
1.649145 0.020614 0.000000
1.669759 0.020614 0.000000
1.690373 0.020614 0.000000
1.710987 0.020614 0.000000
1.731602 0.020614 0.000000
1.752216 0.020614 0.000000
1.772830 0.020614 0.000000
1.793445 0.020614 0.000000
1.814059 0.020614 0.000000
1.834673 0.020614 0.000000
1.855288 0.020614 0.000000
1.875902 0.020614 0.000000
1.896516 0.020614 0.000000
1.917130 0.020614 0.000000
1.937745 0.020614 0.000000
1.958359 0.020614 0.000000
1.978973 0.020614 0.000000
1.999588 0.020614 0.000000
2.020202 0.020614 0.000000
1.010101 0.030921 0.000000
1.030715 0.030921 0.000000
1.051330 0.030921 0.000000
1.071944 0.030921 0.000000
1.092558 0.030921 0.000000
1.113173 0.030921 0.000000
1.133787 0.030921 0.000000
1.154401 0.030921 0.000000
1.175015 0.030921 0.000000
1.195630 0.030921 0.000000
1.216244 0.030921 0.000000
1.236858 0.030921 0.000000
1.257473 0.030921 0.000000
1.278087 0.030921 0.000000
1.298701 0.030921 0.000000
1.319316 0.030921 0.000000
1.339930 0.030921 0.000000
1.360544 0.030921 0.000000
1.381159 0.030921 0.000000
1.401773 0.030921 0.000000
1.422387 0.030921 0.000000
1.443001 0.030921 0.000000
1.463616 0.030921 0.000000
1.484230 0.030921 0.000000
1.504844 0.030921 0.000000
1.525459 0.030921 0.000000
1.546073 0.030921 0.000000
1.566687 0.030921 0.000000
1.587302 0.030921 0.000000
1.607916 0.030921 0.000000
1.628530 0.030921 0.000000
1.649145 0.030921 0.000000
1.669759 0.030921 0.000000
1.690373 0.030921 0.000000
1.710987 0.030921 0.000000
1.731602 0.030921 0.000000
1.752216 0.030921 0.000000
1.772830 0.030921 0.000000
1.793445 0.030921 0.000000
1.814059 0.030921 0.000000
1.834673 0.030921 0.000000
1.855288 0.030921 0.000000
1.875902 0.030921 0.000000
1.896516 0.030921 0.000000
1.917130 0.030921 0.000000
1.937745 0.030921 0.000000
1.958359 0.030921 0.000000
1.978973 0.030921 0.000000
1.999588 0.030921 0.000000
2.020202 0.030921 0.000000
1.010101 0.041229 0.000000
1.030715 0.041229 0.000000
1.051330 0.041229 0.000000
1.071944 0.041229 0.000000
1.092558 0.041229 0.000000
1.113173 0.041229 0.000000
1.133787 0.041229 0.000000
1.154401 0.041229 0.000000
1.175015 0.041229 0.000000
1.195630 0.041229 0.000000
1.216244 0.041229 0.000000
1.236858 0.041229 0.000000
1.257473 0.041229 0.000000
1.278087 0.041229 0.000000
1.298701 0.041229 0.000000
1.319316 0.041229 0.000000
1.339930 0.041229 0.000000
1.360544 0.041229 0.000000
1.381159 0.041229 0.000000
1.401773 0.041229 0.000000
1.422387 0.041229 0.000000
1.443001 0.041229 0.000000
1.463616 0.041229 0.000000
1.484230 0.041229 0.000000
1.504844 0.041229 0.000000
1.525459 0.041229 0.000000
1.546073 0.041229 0.000000
1.566687 0.041229 0.000000
1.587302 0.041229 0.000000
1.607916 0.041229 0.000000
1.628530 0.041229 0.000000
1.649145 0.041229 0.000000
1.669759 0.041229 0.000000
1.690373 0.041229 0.000000
1.710987 0.041229 0.000000
1.731602 0.041229 0.000000
1.752216 0.041229 0.000000
1.772830 0.041229 0.000000
1.793445 0.041229 0.000000
1.814059 0.041229 0.000000
1.834673 0.041229 0.000000
1.855288 0.041229 0.000000
1.875902 0.041229 0.000000
1.896516 0.041229 0.000000
1.917130 0.041229 0.000000
1.937745 0.041229 0.000000
1.958359 0.041229 0.000000
1.978973 0.041229 0.000000
1.999588 0.041229 0.000000
2.020202 0.041229 0.000000
1.010101 0.051536 0.000000
1.030715 0.051536 0.000000
1.051330 0.051536 0.000000
1.071944 0.051536 0.000000
1.092558 0.051536 0.000000
1.113173 0.051536 0.000000
1.133787 0.051536 0.000000
1.154401 0.051536 0.000000
1.175015 0.051536 0.000000
1.195630 0.051536 0.000000
1.216244 0.051536 0.000000
1.236858 0.051536 0.000000
1.257473 0.051536 0.000000
1.278087 0.051536 0.000000
1.298701 0.051536 0.000000
1.319316 0.051536 0.000000
1.339930 0.051536 0.000000
1.360544 0.051536 0.000000
1.381159 0.051536 0.000000
1.401773 0.051536 0.000000
1.422387 0.051536 0.000000
1.443001 0.051536 0.000000
1.463616 0.051536 0.000000
1.484230 0.051536 0.000000
1.504844 0.051536 0.000000
1.525459 0.051536 0.000000
1.546073 0.051536 0.000000
1.566687 0.051536 0.000000
1.587302 0.051536 0.000000
1.607916 0.051536 0.000000
1.628530 0.051536 0.000000
1.649145 0.051536 0.000000
1.669759 0.051536 0.000000
1.690373 0.051536 0.000000
1.710987 0.051536 0.000000
1.731602 0.051536 0.000000
1.752216 0.051536 0.000000
1.772830 0.051536 0.000000
1.793445 0.051536 0.000000
1.814059 0.051536 0.000000
1.834673 0.051536 0.000000
1.855288 0.051536 0.000000
1.875902 0.051536 0.000000
1.896516 0.051536 0.000000
1.917130 0.051536 0.000000
1.937745 0.051536 0.000000
1.958359 0.051536 0.000000
1.978973 0.051536 0.000000
1.999588 0.051536 0.000000
2.020202 0.051536 0.000000
1.010101 0.061843 0.000000
1.030715 0.061843 0.000000
1.051330 0.061843 0.000000
1.071944 0.061843 0.000000
1.092558 0.061843 0.000000
1.113173 0.061843 0.000000
1.133787 0.061843 0.000000
1.154401 0.061843 0.000000
1.175015 0.061843 0.000000
1.195630 0.061843 0.000000
1.216244 0.061843 0.000000
1.236858 0.061843 0.000000
1.257473 0.061843 0.000000
1.278087 0.061843 0.000000
1.298701 0.061843 0.000000
1.319316 0.061843 0.000000
1.339930 0.061843 0.000000
1.360544 0.061843 0.000000
1.381159 0.061843 0.000000
1.401773 0.061843 0.000000
1.422387 0.061843 0.000000
1.443001 0.061843 0.000000
1.463616 0.061843 0.000000
1.484230 0.061843 0.000000
1.504844 0.061843 0.000000
1.525459 0.061843 0.000000
1.546073 0.061843 0.000000
1.566687 0.061843 0.000000
1.587302 0.061843 0.000000
1.607916 0.061843 0.000000
1.628530 0.061843 0.000000
1.649145 0.061843 0.000000
1.669759 0.061843 0.000000
1.690373 0.061843 0.000000
1.710987 0.061843 0.000000
1.731602 0.061843 0.000000
1.752216 0.061843 0.000000
1.772830 0.061843 0.000000
1.793445 0.061843 0.000000
1.814059 0.061843 0.000000
1.834673 0.061843 0.000000
1.855288 0.061843 0.000000
1.875902 0.061843 0.000000
1.896516 0.061843 0.000000
1.917130 0.061843 0.000000
1.937745 0.061843 0.000000
1.958359 0.061843 0.000000
1.978973 0.061843 0.000000
1.999588 0.061843 0.000000
2.020202 0.061843 0.000000
1.010101 0.072150 0.000000
1.030715 0.072150 0.000000
1.051330 0.072150 0.000000
1.071944 0.072150 0.000000
1.092558 0.072150 0.000000
1.113173 0.072150 0.000000
1.133787 0.072150 0.000000
1.154401 0.072150 0.000000
1.175015 0.072150 0.000000
1.195630 0.072150 0.000000
1.216244 0.072150 0.000000
1.236858 0.072150 0.000000
1.257473 0.072150 0.000000
1.278087 0.072150 0.000000
1.298701 0.072150 0.000000
1.319316 0.072150 0.000000
[...]
POINT_DATA 2500
SCALARS P float 1
LOOKUP_TABLE default
 1.010101
 1.030303
 1.050505
 1.070707
 1.090909
 1.111111
 1.131313
 1.151515
 1.171717
 1.191919
 1.212121
 1.232323
 1.252525
 1.272727
 1.292929
 1.313131
 1.333333
 1.353535
 1.373737
 1.393939
 1.414141
 1.434343
 1.454545
 1.474747
 1.494949
 1.515152
 1.535354
 1.555556
 1.575758
 1.595960
 1.616162
 1.636364
 1.656566
 1.676768
 1.696970
 1.717172
 1.737374
 1.757576
 1.777778
 1.797980
 1.818182
 1.838384
 1.858586
 1.878788
 1.898990
 1.919192
 1.939394
 1.959596
 1.979798
 2.000000
 1.020356
 1.040763
 1.061170
 1.081577
 1.101984
 1.122391
 1.142799
 1.163206
 1.183613
 1.204020
 1.224427
 1.244834
 1.265241
 1.285648
 1.306055
 1.326463
 1.346870
 1.367277
 1.387684
 1.408091
 1.428498
 1.448905
 1.469312
 1.489719
 1.510127
 1.530534
 1.550941
 1.571348
 1.591755
 1.612162
 1.632569
 1.652976
 1.673384
 1.693791
 1.714198
 1.734605
 1.755012
 1.775419
 1.795826
 1.816233
 1.836640
 1.857048
 1.877455
 1.897862
 1.918269
 1.938676
 1.959083
 1.979490
 1.999897
 2.020304
 1.030715
 1.051329
 1.071943
 1.092558
 1.113172
 1.133786
 1.154400
 1.175015
 1.195629
 1.216243
 1.236858
 1.257472
 1.278086
 1.298701
 1.319315
 1.339929
 1.360543
 1.381158
 1.401772
 1.422386
 1.443001
 1.463615
 1.484229
 1.504843
 1.525458
 1.546072
 1.566686
 1.587301
 1.607915
 1.628529
 1.649144
 1.669758
 1.690372
 1.710986
 1.731601
 1.752215
 1.772829
 1.793444
 1.814058
 1.834672
 1.855286
 1.875901
 1.896515
 1.917129
 1.937744
 1.958358
 1.978972
 1.999586
 2.020201
 2.040815
 1.041179
 1.062002
 1.082826
 1.103650
 1.124473
 1.145297
 1.166120
 1.186944
 1.207767
 1.228591
 1.249415
 1.270238
 1.291062
 1.311885
 1.332709
 1.353532
 1.374356
 1.395180
 1.416003
 1.436827
 1.457650
 1.478474
 1.499297
 1.520121
 1.540945
 1.561768
 1.582592
 1.603415
 1.624239
 1.645062
 1.665886
 1.686710
 1.707533
 1.728357
 1.749180
 1.770004
 1.790827
 1.811651
 1.832475
 1.853298
 1.874122
 1.894945
 1.915769
 1.936592
 1.957416
 1.978239
 1.999063
 2.019887
 2.040710
 2.061534
 1.051749
 1.072784
 1.093819
 1.114854
 1.135889
 1.156924
 1.177959
 1.198994
 1.220029
 1.241064
 1.262099
 1.283134
 1.304169
 1.325204
 1.346239
 1.367274
 1.388309
 1.409344
 1.430379
 1.451414
 1.472449
 1.493484
 1.514519
 1.535554
 1.556589
 1.577624
 1.598659
 1.619694
 1.640729
 1.661763
 1.682798
 1.703833
 1.724868
 1.745903
 1.766938
 1.787973
 1.809008
 1.830043
 1.851078
 1.872113
 1.893148
 1.914183
 1.935218
 1.956253
 1.977288
 1.998323
 2.019358
 2.040393
 2.061428
 2.082463
 1.062427
 1.083675
 1.104924
 1.126172
 1.147421
 1.168669
 1.189918
 1.211166
 1.232415
 1.253664
 1.274912
 1.296161
 1.317409
 1.338658
 1.359906
 1.381155
 1.402403
 1.423652
 1.444900
 1.466149
 1.487397
 1.508646
 1.529894
 1.551143
 1.572391
 1.593640
 1.614889
 1.636137
 1.657386
 1.678634
 1.699883
 1.721131
 1.742380
 1.763628
 1.784877
 1.806125
 1.827374
 1.848622
 1.869871
 1.891119
 1.912368
 1.933616
 1.954865
 1.976113
 1.997362
 2.018610
 2.039859
 2.061107
 2.082356
 2.103604
 1.073213
 1.094677
 1.116141
 1.137605
 1.159070
 1.180534
 1.201998
 1.223462
 1.244927
 1.266391
 1.287855
 1.309320
 1.330784
 1.352248
 1.373712
 1.395177
 1.416641
 1.438105
 1.459569
 1.481034
 1.502498
 1.523962
 1.545426
 1.566890
 1.588355
 1.609819
 1.631283
 1.652747
 1.674212
 1.695676
 1.717140
 1.738604
 1.760069
 1.781533
 1.802997
 1.824461
 1.845926
 1.867390
 1.888854
 1.910318
 1.931783
 1.953247
 1.974711
 1.996175
 2.017639
 2.039104
 2.060568
 2.082032
 2.103496
 2.124961
 1.084108
 1.105790
 1.127473
 1.149155
 1.170837
 1.192519
 1.214201
 1.235883
 1.257566
 1.279248
 1.300930
 1.322612
 1.344294
 1.365976
 1.387659
 1.409341
 1.431023
 1.452705
 1.474387
 1.496069
 1.517751
 1.539434
 1.561116
 1.582798
 1.604480
 1.626162
 1.647844
 1.669527
 1.691209
 1.712891
 1.734573
 1.756255
 1.777937
 1.799619
 1.821302
 1.842984
 1.864666
 1.886348
 1.908030
 1.929712
 1.951394
 1.973077
 1.994759
 2.016441
 2.038123
 2.059805
 2.081487
 2.103169
 2.124851
 2.146534
 1.095114
 1.117017
 1.138919
 1.160821
 1.182724
 1.204626
 1.226528
 1.248430
 1.270333
 1.292235
 1.314137
 1.336040
 1.357942
 1.379844
 1.401746
 1.423649
 1.445551
 1.467453
 1.489355
 1.511258
 1.533160
 1.555062
 1.576965
 1.598867
 1.620769
 1.642671
 1.664574
 1.686476
 1.708378
 1.730281
 1.752183
 1.774085
 1.795987
 1.817890
 1.839792
 1.861694
 1.883596
 1.905499
 1.927401
 1.949303
 1.971205
 1.993108
 2.015010
 2.036912
 2.058814
 2.080717
 2.102619
 2.124521
 2.146423
 2.168326
 1.106232
 1.128357
 1.150482
 1.172606
 1.194731
 1.216855
 1.238980
 1.261105
 1.283229
 1.305354
 1.327479
 1.349603
 1.371728
 1.393853
 1.415977
 1.438102
 1.460226
 1.482351
 1.504476
 1.526600
 1.548725
 1.570850
 1.592974
 1.615099
 1.637224
 1.659348
 1.681473
 1.703597
 1.725722
 1.747847
 1.769971
 1.792096
 1.814221
 1.836345
 1.858470
 1.880594
 1.902719
 1.924844
 1.946968
 1.969093
 1.991218
 2.013342
 2.035467
 2.057591
 2.079716
 2.101841
 2.123965
 2.146090
 2.168214
 2.190339
 1.117463
 1.139812
 1.162161
 1.184511
 1.206860
 1.229209
 1.251559
 1.273908
 1.296257
 1.318606
 1.340956
 1.363305
 1.385654
 1.408003
 1.430353
 1.452702
 1.475051
 1.497400
 1.519750
 1.542099
 1.564448
 1.586797
 1.609147
 1.631496
 1.653845
 1.676194
 1.698544
 1.720893
 1.743242
 1.765591
 1.787940
 1.810290
 1.832639
 1.854988
 1.877337
 1.899687
 1.922036
 1.944385
 1.966734
 1.989084
 2.011433
 2.033782
 2.056131
 2.078480
 2.100830
 2.123179
 2.145528
 2.167877
 2.190226
 2.212576
 1.128808
 1.151384
 1.173960
 1.196536
 1.219112
 1.241688
 1.264265
 1.286841
 1.309417
 1.331993
 1.354569
 1.377145
 1.399722
 1.422298
 1.444874
 1.467450
 1.490026
 1.512602
 1.535178
 1.557755
 1.580331
 1.602907
 1.625483
 1.648059
 1.670635
 1.693211
 1.715788
 1.738364
 1.760940
 1.783516
 1.806092
 1.828668
 1.851244
 1.873820
 1.896397
 1.918973
 1.941549
 1.964125
 1.986701
 2.009277
 2.031853
 2.054429
 2.077006
 2.099582
 2.122158
 2.144734
 2.167310
 2.189886
 2.212462
 2.235038
 1.140268
 1.163073
 1.185878
 1.208684
 1.231489
 1.254294
 1.277100
 1.299905
 1.322710
 1.345516
 1.368321
 1.391126
 1.413932
 1.436737
 1.459543
 1.482348
 1.505153
 1.527959
 1.550764
 1.573569
 1.596375
 1.619180
 1.641985
 1.664791
 1.687596
 1.710401
 1.733207
 1.756012
 1.778817
 1.801623
 1.824428
 1.847233
 1.870039
 1.892844
 1.915649
 1.938455
 1.961260
 1.984065
 2.006870
 2.029676
 2.052481
 2.075286
 2.098092
 2.120897
 2.143702
 2.166508
 2.189313
 2.212118
 2.234923
 2.257729
 1.151844
 1.174881
 1.197918
 1.220955
 1.243991
 1.267028
 1.290065
 1.313102
 1.336139
 1.359176
 1.382213
 1.405250
 1.428286
 1.451323
 1.474360
 1.497397
 1.520434
 1.543471
 1.566508
 1.589544
 1.612581
 1.635618
 1.658655
 1.681692
 1.704729
 1.727766
 1.750802
 1.773839
 1.796876
 1.819913
 1.842950
 1.865987
 1.889024
 1.912060
 1.935097
 1.958134
 1.981171
 2.004208
 2.027245
 2.050281
 2.073318
 2.096355
 2.119392
 2.142429
 2.165466
 2.188502
 2.211539
 2.234576
 2.257613
 2.280650
 1.163538
 1.186808
 1.210079
 1.233350
 1.256621
 1.279891
 1.303162
 1.326433
 1.349704
 1.372974
 1.396245
 1.419516
 1.442787
 1.466057
 1.489328
 1.512599
 1.535870
 1.559140
 1.582411
 1.605682
 1.628953
 1.652223
 1.675494
 1.698765
 1.722036
 1.745306
 1.768577
 1.791848
 1.815118
 1.838389
 1.861660
 1.884931
 1.908201
 1.931472
 1.954743
 1.978014
 2.001284
 2.024555
 2.047826
 2.071096
 2.094367
 2.117638
 2.140908
 2.164179
 2.187450
 2.210721
 2.233991
 2.257262
 2.280533
 2.303803
 1.175350
 1.198857
 1.222364
 1.245871
 1.269378
 1.292885
 1.316392
 1.339899
 1.363406
 1.386913
 1.410420
 1.433927
 1.457434
 1.480941
 1.504448
 1.527955
 1.551462
 1.574969
 1.598476
 1.621983
 1.645490
 1.668997
 1.692504
 1.716011
 1.739518
 1.763025
 1.786532
 1.810039
 1.833546
 1.857053
 1.880560
 1.904067
 1.927574
 1.951081
 1.974588
 1.998095
 2.021602
 2.045109
 2.068616
 2.092123
 2.115630
 2.139136
 2.162643
 2.186150
 2.209657
 2.233164
 2.256671
 2.280178
 2.303685
 2.327192
 1.187283
 1.211028
 1.234774
 1.258520
 1.282265
 1.306011
 1.329756
 1.353502
 1.377248
 1.400993
 1.424739
 1.448485
 1.472230
 1.495976
 1.519722
 1.543467
 1.567213
 1.590959
 1.614704
 1.638450
 1.662195
 1.685941
 1.709687
 1.733432
 1.757178
 1.780924
 1.804669
 1.828415
 1.852161
 1.875906
 1.899652
 1.923397
 1.947143
 1.970889
 1.994634
 2.018380
 2.042125
 2.065871
 2.089617
 2.113362
 2.137108
 2.160853
 2.184599
 2.208345
 2.232090
 2.255836
 2.279581
 2.303327
 2.327072
 2.350818
 1.199336
 1.223323
 1.247310
 1.271296
 1.295283
 1.319270
 1.343256
 1.367243
 1.391230
 1.415217
 1.439203
 1.463190
 1.487177
 1.511163
 1.535150
 1.559137
 1.583124
 1.607110
 1.631097
 1.655084
 1.679070
 1.703057
 1.727044
 1.751031
 1.775017
 1.799004
 1.822991
 1.846977
 1.870964
 1.894951
 1.918937
 1.942924
 1.966911
 1.990898
 2.014884
 2.038871
 2.062858
 2.086844
 2.110831
 2.134818
 2.158804
 2.182791
 2.206778
 2.230764
 2.254751
 2.278737
 2.302724
 2.326711
 2.350697
 2.374684
 1.211512
 1.235742
 1.259973
 1.284203
 1.308433
 1.332663
 1.356894
 1.381124
 1.405354
 1.429584
 1.453814
 1.478045
 1.502275
 1.526505
 1.550735
 1.574966
 1.599196
 1.623426
 1.647656
 1.671887
 1.696117
 1.720347
 1.744577
 1.768807
 1.793038
 1.817268
 1.841498
 1.865728
 1.889958
 1.914189
 1.938419
 1.962649
 1.986879
 2.011110
 2.035340
 2.059570
 2.083800
 2.108030
 2.132260
 2.156491
 2.180721
 2.204951
 2.229181
 2.253411
 2.277642
 2.301872
 2.326102
 2.350332
 2.374562
 2.398792
 1.223812
 1.248288
 1.272764
 1.297240
 1.321717
 1.346193
 1.370669
 1.395145
 1.419621
 1.444098
 1.468574
 1.493050
 1.517526
 1.542003
 1.566479
 1.590955
 1.615431
 1.639907
 1.664384
 1.688860
 1.713336
 1.737812
 1.762289
 1.786765
 1.811241
 1.835717
 1.860193
 1.884670
 1.909146
 1.933622
 1.958098
 1.982574
 2.007051
 2.031527
 2.056003
 2.080479
 2.104955
 2.129431
 2.153908
 2.178384
 2.202860
 2.227336
 2.251812
 2.276288
 2.300765
 2.325241
 2.349717
 2.374193
 2.398669
 2.423145
 1.236236
 1.260961
 1.285685
 1.310410
 1.335135
 1.359860
 1.384584
 1.409309
 1.434034
 1.458758
 1.483483
 1.508208
 1.532933
 1.557657
 1.582382
 1.607107
 1.631831
 1.656556
 1.681281
 1.706006
 1.730730
 1.755455
 1.780180
 1.804904
 1.829629
 1.854354
 1.879078
 1.903803
 1.928528
 1.953253
 1.977977
 2.002702
 2.027427
 2.052151
 2.076876
 2.101601
 2.126325
 2.151050
 2.175775
 2.200499
 2.225224
 2.249949
 2.274673
 2.299398
 2.324122
 2.348847
 2.373572
 2.398296
 2.423021
 2.447745
 1.248787
 1.273762
 1.298738
 1.323714
 1.348689
 1.373665
 1.398641
 1.423617
 1.448592
 1.473568
 1.498544
 1.523520
 1.548495
 1.573471
 1.598447
 1.623422
 1.648398
 1.673374
 1.698350
 1.723325
 1.748301
 1.773277
 1.798252
 1.823228
 1.848204
 1.873180
 1.898155
 1.923131
 1.948107
 1.973082
 1.998058
 2.023034
 2.048009
 2.072985
 2.097961
 2.122936
 2.147912
 2.172888
 2.197863
 2.222839
 2.247815
 2.272790
 2.297766
 2.322742
 2.347717
 2.372693
 2.397669
 2.422644
 2.447620
 2.472595
 1.261465
 1.286694
 1.311923
 1.337152
 1.362382
 1.387611
 1.412840
 1.438070
 1.463299
 1.488528
 1.513757
 1.538987
 1.564216
 1.589445
 1.614674
 1.639904
 1.665133
 1.690362
 1.715592
 1.740821
 1.766050
 1.791279
 1.816509
 1.841738
 1.866967
 1.892196
 1.917426
 1.942655
 1.967884
 1.993113
 2.018343
 2.043572
 2.068801
 2.094030
 2.119260
 2.144489
 2.169718
 2.194947
 2.220177
 2.245406
 2.270635
 2.295864
 2.321093
 2.346323
 2.371552
 2.396781
 2.422010
 2.447239
 2.472469
 2.497698
 1.274271
 1.299757
 1.325242
 1.350727
 1.376213
 1.401698
 1.427184
 1.452669
 1.478155
 1.503640
 1.529125
 1.554611
 1.580096
 1.605582
 1.631067
 1.656552
 1.682038
 1.707523
 1.733009
 1.758494
 1.783979
 1.809465
 1.834950
 1.860436
 1.885921
 1.911406
 1.936892
 1.962377
 1.987863
 2.013348
 2.038833
 2.064319
 2.089804
 2.115290
 2.140775
 2.166260
 2.191746
 2.217231
 2.242716
 2.268202
 2.293687
 2.319172
 2.344658
 2.370143
 2.395628
 2.421114
 2.446599
 2.472084
 2.497570
 2.523055
 1.287208
 1.312952
 1.338696
 1.364440
 1.390184
 1.415929
 1.441673
 1.467417
 1.493161
 1.518905
 1.544649
 1.570394
 1.596138
 1.621882
 1.647626
 1.673370
 1.699114
 1.724858
 1.750603
 1.776347
 1.802091
 1.827835
 1.853579
 1.879323
 1.905067
 1.930811
 1.956556
 1.982300
 2.008044
 2.033788
 2.059532
 2.085276
 2.111020
 2.136764
 2.162508
 2.188253
 2.213997
 2.239741
 2.265485
 2.291229
 2.316973
 2.342717
 2.368461
 2.394205
 2.419949
 2.445693
 2.471437
 2.497181
 2.522925
 2.548669
 1.300276
 1.326281
 1.352287
 1.378292
 1.404298
 1.430303
 1.456309
 1.482314
 1.508320
 1.534325
 1.560331
 1.586336
 1.612342
 1.638348
 1.664353
 1.690359
 1.716364
 1.742370
 1.768375
 1.794381
 1.820386
 1.846391
 1.872397
 1.898402
 1.924408
 1.950413
 1.976419
 2.002424
 2.028430
 2.054435
 2.080441
 2.106446
 2.132452
 2.158457
 2.184463
 2.210468
 2.236474
 2.262479
 2.288485
 2.314490
 2.340495
 2.366501
 2.392506
 2.418512
 2.444517
 2.470522
 2.496528
 2.522533
 2.548539
 2.574544
 1.313477
 1.339746
 1.366016
 1.392285
 1.418555
 1.444824
 1.471094
 1.497363
 1.523633
 1.549902
 1.576172
 1.602441
 1.628711
 1.654980
 1.681250
 1.707519
 1.733789
 1.760058
 1.786328
 1.812597
 1.838867
 1.865136
 1.891406
 1.917675
 1.943945
 1.970214
 1.996484
 2.022753
 2.049023
 2.075292
 2.101562
 2.127831
 2.154101
 2.180370
 2.206640
 2.232909
 2.259179
 2.285448
 2.311718
 2.337987
 2.364257
 2.390526
 2.416795
 2.443065
 2.469334
 2.495604
 2.521873
 2.548143
 2.574412
 2.600681
 1.326811
 1.353347
 1.379884
 1.406420
 1.432956
 1.459492
 1.486029
 1.512565
 1.539101
 1.565637
 1.592173
 1.618710
 1.645246
 1.671782
 1.698318
 1.724854
 1.751391
 1.777927
 1.804463
 1.830999
 1.857536
 1.884072
 1.910608
 1.937144
 1.963680
 1.990216
 2.016753
 2.043289
 2.069825
 2.096361
 2.122897
 2.149434
 2.175970
 2.202506
 2.229042
 2.255578
 2.282114
 2.308651
 2.335187
 2.361723
 2.388259
 2.414795
 2.441331
 2.467867
 2.494403
 2.520940
 2.547476
 2.574012
 2.600548
 2.627084
 1.340281
 1.367087
 1.393893
 1.420698
 1.447504
 1.474309
 1.501115
 1.527921
 1.554726
 1.581532
 1.608338
 1.635143
 1.661949
 1.688754
 1.715560
 1.742366
 1.769171
 1.795977
 1.822782
 1.849588
 1.876394
 1.903199
 1.930005
 1.956810
 1.983616
 2.010422
 2.037227
 2.064033
 2.090838
 2.117644
 2.144449
 2.171255
 2.198061
 2.224866
 2.251672
 2.278477
 2.305283
 2.332088
 2.358894
 2.385700
 2.412505
 2.439311
 2.466116
 2.492922
 2.519727
 2.546533
 2.573338
 2.600144
 2.626949
 2.653755
 1.353888
 1.380966
 1.408044
 1.435121
 1.462199
 1.489277
 1.516355
 1.543432
 1.570510
 1.597588
 1.624666
 1.651743
 1.678821
 1.705899
 1.732977
 1.760054
 1.787132
 1.814210
 1.841288
 1.868365
 1.895443
 1.922521
 1.949599
 1.976676
 2.003754
 2.030832
 2.057910
 2.084987
 2.112065
 2.139143
 2.166220
 2.193298
 2.220376
 2.247454
 2.274531
 2.301609
 2.328687
 2.355764
 2.382842
 2.409920
 2.436997
 2.464075
 2.491153
 2.518230
 2.545308
 2.572386
 2.599463
 2.626541
 2.653618
 2.680696
 1.367633
 1.394986
 1.422338
 1.449691
 1.477044
 1.504396
 1.531749
 1.559102
 1.586454
 1.613807
 1.641160
 1.668512
 1.695865
 1.723218
 1.750570
 1.777923
 1.805276
 1.832628
 1.859981
 1.887333
 1.914686
 1.942039
 1.969391
 1.996744
 2.024097
 2.051449
 2.078802
 2.106154
 2.133507
 2.160860
 2.188212
 2.215565
 2.242918
 2.270270
 2.297623
 2.324975
 2.352328
 2.379680
 2.407033
 2.434386
 2.461738
 2.489091
 2.516443
 2.543796
 2.571148
 2.598501
 2.625853
 2.653206
 2.680558
 2.707911
 1.381518
 1.409148
 1.436778
 1.464409
 1.492039
 1.519669
 1.547300
 1.574930
 1.602560
 1.630191
 1.657821
 1.685451
 1.713082
 1.740712
 1.768342
 1.795973
 1.823603
 1.851233
 1.878864
 1.906494
 1.934124
 1.961755
 1.989385
 2.017015
 2.044646
 2.072276
 2.099906
 2.127537
 2.155167
 2.182797
 2.210427
 2.238058
 2.265688
 2.293318
 2.320949
 2.348579
 2.376209
 2.403839
 2.431470
 2.459100
 2.486730
 2.514361
 2.541991
 2.569621
 2.597251
 2.624881
 2.652512
 2.680142
 2.707772
 2.735402
 1.395543
 1.423454
 1.451365
 1.479276
 1.507186
 1.535097
 1.563008
 1.590919
 1.618830
 1.646741
 1.674652
 1.702562
 1.730473
 1.758384
 1.786295
 1.814206
 1.842117
 1.870027
 1.897938
 1.925849
 1.953760
 1.981671
 2.009582
 2.037492
 2.065403
 2.093314
 2.121225
 2.149136
 2.177047
 2.204957
 2.232868
 2.260779
 2.288690
 2.316601
 2.344511
 2.372422
 2.400333
 2.428244
 2.456155
 2.484065
 2.511976
 2.539887
 2.567798
 2.595708
 2.623619
 2.651530
 2.679440
 2.707351
 2.735262
 2.763173
 1.409711
 1.437905
 1.466099
 1.494294
 1.522488
 1.550682
 1.578876
 1.607070
 1.635265
 1.663459
 1.691653
 1.719847
 1.748041
 1.776236
 1.804430
 1.832624
 1.860818
 1.889012
 1.917207
 1.945401
 1.973595
 2.001789
 2.029983
 2.058178
 2.086372
 2.114566
 2.142760
 2.170954
 2.199148
 2.227343
 2.255537
 2.283731
 2.311925
 2.340119
 2.368313
 2.396507
 2.424702
 2.452896
 2.481090
 2.509284
 2.537478
 2.565672
 2.593866
 2.622060
 2.650255
 2.678449
 2.706643
 2.734837
 2.763031
 2.791225
 1.424023
 1.452503
 1.480983
 1.509464
 1.537944
 1.566425
 1.594905
 1.623386
 1.651866
 1.680347
 1.708827
 1.737307
 1.765788
 1.794268
 1.822749
 1.851229
 1.879710
 1.908190
 1.936670
 1.965151
 1.993631
 2.022112
 2.050592
 2.079073
 2.107553
 2.136033
 2.164514
 2.192994
 2.221475
 2.249955
 2.278435
 2.306916
 2.335396
 2.363877
 2.392357
 2.420837
 2.449318
 2.477798
 2.506278
 2.534759
 2.563239
 2.591719
 2.620200
 2.648680
 2.677160
 2.705641
 2.734121
 2.762601
 2.791082
 2.819562
 1.438480
 1.467249
 1.496019
 1.524788
 1.553558
 1.582327
 1.611097
 1.639867
 1.668636
 1.697406
 1.726175
 1.754945
 1.783714
 1.812484
 1.841254
 1.870023
 1.898793
 1.927562
 1.956332
 1.985101
 2.013871
 2.042641
 2.071410
 2.100180
 2.128949
 2.157719
 2.186488
 2.215258
 2.244027
 2.272797
 2.301567
 2.330336
 2.359106
 2.387875
 2.416645
 2.445414
 2.474184
 2.502953
 2.531723
 2.560492
 2.589262
 2.618031
 2.646801
 2.675570
 2.704340
 2.733109
 2.761878
 2.790648
 2.819417
 2.848187
 1.453083
 1.482145
 1.511207
 1.540268
 1.569330
 1.598392
 1.627453
 1.656515
 1.685577
 1.714638
 1.743700
 1.772761
 1.801823
 1.830885
 1.859946
 1.889008
 1.918070
 1.947131
 1.976193
 2.005255
 2.034316
 2.063378
 2.092440
 2.121501
 2.150563
 2.179624
 2.208686
 2.237748
 2.266809
 2.295871
 2.324932
 2.353994
 2.383056
 2.412117
 2.441179
 2.470240
 2.499302
 2.528364
 2.557425
 2.586487
 2.615548
 2.644610
 2.673671
 2.702733
 2.731794
 2.760856
 2.789918
 2.818979
 2.848041
 2.877102
 1.467835
 1.497192
 1.526549
 1.555905
 1.585262
 1.614619
 1.643975
 1.673332
 1.702689
 1.732046
 1.761402
 1.790759
 1.820116
 1.849472
 1.878829
 1.908186
 1.937542
 1.966899
 1.996256
 2.025612
 2.054969
 2.084326
 2.113682
 2.143039
 2.172396
 2.201752
 2.231109
 2.260466
 2.289822
 2.319179
 2.348536
 2.377892
 2.407249
 2.436606
 2.465962
 2.495319
 2.524675
 2.554032
 2.583389
 2.612745
 2.642102
 2.671458
 2.700815
 2.730172
 2.759528
 2.788885
 2.818241
 2.847598
 2.876954
 2.906311
 1.482737
 1.512392
 1.542046
 1.571701
 1.601356
 1.631011
 1.660665
 1.690320
 1.719975
 1.749630
 1.779284
 1.808939
 1.838594
 1.868249
 1.897903
 1.927558
 1.957213
 1.986867
 2.016522
 2.046177
 2.075832
 2.105486
 2.135141
 2.164796
 2.194450
 2.224105
 2.253760
 2.283414
 2.313069
 2.342724
 2.372378
 2.402033
 2.431688
 2.461342
 2.490997
 2.520652
 2.550306
 2.579961
 2.609616
 2.639270
 2.668925
 2.698580
 2.728234
 2.757889
 2.787543
 2.817198
 2.846853
 2.876507
 2.906162
 2.935816
 1.497790
 1.527746
 1.557702
 1.587657
 1.617613
 1.647569
 1.677525
 1.707481
 1.737436
 1.767392
 1.797348
 1.827304
 1.857260
 1.887215
 1.917171
 1.947127
 1.977083
 2.007038
 2.036994
 2.066950
 2.096906
 2.126862
 2.156817
 2.186773
 2.216729
 2.246685
 2.276640
 2.306596
 2.336552
 2.366508
 2.396463
 2.426419
 2.456375
 2.486331
 2.516286
 2.546242
 2.576198
 2.606153
 2.636109
 2.666065
 2.696020
 2.725976
 2.755932
 2.785888