# vtk DataFile Version 2.0 
Grid
ASCII
DATASET STRUCTURED_GRID
DIMENSIONS 50 50 1
POINTS 2500 float
0.000000 0.505051 0.000000
0.020614 0.505051 0.000000
0.041229 0.505051 0.000000
0.061843 0.505051 0.000000
0.082457 0.505051 0.000000
0.103072 0.505051 0.000000
0.123686 0.505051 0.000000
0.144300 0.505051 0.000000
0.164914 0.505051 0.000000
0.185529 0.505051 0.000000
0.206143 0.505051 0.000000
0.226757 0.505051 0.000000
0.247372 0.505051 0.000000
0.267986 0.505051 0.000000
0.288600 0.505051 0.000000
0.309215 0.505051 0.000000
0.329829 0.505051 0.000000
0.350443 0.505051 0.000000
0.371058 0.505051 0.000000
0.391672 0.505051 0.000000
0.412286 0.505051 0.000000
0.432900 0.505051 0.000000
0.453515 0.505051 0.000000
0.474129 0.505051 0.000000
0.494743 0.505051 0.000000
0.515358 0.505051 0.000000
0.535972 0.505051 0.000000
0.556586 0.505051 0.000000
0.577201 0.505051 0.000000
0.597815 0.505051 0.000000
0.618429 0.505051 0.000000
0.639043 0.505051 0.000000
0.659658 0.505051 0.000000
0.680272 0.505051 0.000000
0.700886 0.505051 0.000000
0.721501 0.505051 0.000000
0.742115 0.505051 0.000000
0.762729 0.505051 0.000000
0.783344 0.505051 0.000000
0.803958 0.505051 0.000000
0.824572 0.505051 0.000000
0.845187 0.505051 0.000000
0.865801 0.505051 0.000000
0.886415 0.505051 0.000000
0.907029 0.505051 0.000000
0.927644 0.505051 0.000000
0.948258 0.505051 0.000000
0.968872 0.505051 0.000000
0.989487 0.505051 0.000000
1.010101 0.505051 0.000000
0.000000 0.515358 0.000000
0.020614 0.515358 0.000000
0.041229 0.515358 0.000000
0.061843 0.515358 0.000000
0.082457 0.515358 0.000000
0.103072 0.515358 0.000000
0.123686 0.515358 0.000000
0.144300 0.515358 0.000000
0.164914 0.515358 0.000000
0.185529 0.515358 0.000000
0.206143 0.515358 0.000000
0.226757 0.515358 0.000000
0.247372 0.515358 0.000000
0.267986 0.515358 0.000000
0.288600 0.515358 0.000000
0.309215 0.515358 0.000000
0.329829 0.515358 0.000000
0.350443 0.515358 0.000000
0.371058 0.515358 0.000000
0.391672 0.515358 0.000000
0.412286 0.515358 0.000000
0.432900 0.515358 0.000000
0.453515 0.515358 0.000000
0.474129 0.515358 0.000000
0.494743 0.515358 0.000000
0.515358 0.515358 0.000000
0.535972 0.515358 0.000000
0.556586 0.515358 0.000000
0.577201 0.515358 0.000000
0.597815 0.515358 0.000000
0.618429 0.515358 0.000000
0.639043 0.515358 0.000000
0.659658 0.515358 0.000000
0.680272 0.515358 0.000000
0.700886 0.515358 0.000000
0.721501 0.515358 0.000000
0.742115 0.515358 0.000000
0.762729 0.515358 0.000000
0.783344 0.515358 0.000000
0.803958 0.515358 0.000000
0.824572 0.515358 0.000000
0.845187 0.515358 0.000000
0.865801 0.515358 0.000000
0.886415 0.515358 0.000000
0.907029 0.515358 0.000000
0.927644 0.515358 0.000000
0.948258 0.515358 0.000000
0.968872 0.515358 0.000000
0.989487 0.515358 0.000000
1.010101 0.515358 0.000000
0.000000 0.525665 0.000000
0.020614 0.525665 0.000000
0.041229 0.525665 0.000000
0.061843 0.525665 0.000000
0.082457 0.525665 0.000000
0.103072 0.525665 0.000000
0.123686 0.525665 0.000000
0.144300 0.525665 0.000000
0.164914 0.525665 0.000000
0.185529 0.525665 0.000000
0.206143 0.525665 0.000000
0.226757 0.525665 0.000000
0.247372 0.525665 0.000000
0.267986 0.525665 0.000000
0.288600 0.525665 0.000000
0.309215 0.525665 0.000000
0.329829 0.525665 0.000000
0.350443 0.525665 0.000000
0.371058 0.525665 0.000000
0.391672 0.525665 0.000000
0.412286 0.525665 0.000000
0.432900 0.525665 0.000000
0.453515 0.525665 0.000000
0.474129 0.525665 0.000000
0.494743 0.525665 0.000000
0.515358 0.525665 0.000000
0.535972 0.525665 0.000000
0.556586 0.525665 0.000000
0.577201 0.525665 0.000000
0.597815 0.525665 0.000000
0.618429 0.525665 0.000000
0.639043 0.525665 0.000000
0.659658 0.525665 0.000000
0.680272 0.525665 0.000000
0.700886 0.525665 0.000000
0.721501 0.525665 0.000000
0.742115 0.525665 0.000000
0.762729 0.525665 0.000000
0.783344 0.525665 0.000000
0.803958 0.525665 0.000000
0.824572 0.525665 0.000000
0.845187 0.525665 0.000000
0.865801 0.525665 0.000000
0.886415 0.525665 0.000000
0.907029 0.525665 0.000000
0.927644 0.525665 0.000000
0.948258 0.525665 0.000000
0.968872 0.525665 0.000000
0.989487 0.525665 0.000000
1.010101 0.525665 0.000000
0.000000 0.535972 0.000000
0.020614 0.535972 0.000000
0.041229 0.535972 0.000000
0.061843 0.535972 0.000000
0.082457 0.535972 0.000000
0.103072 0.535972 0.000000
0.123686 0.535972 0.000000
0.144300 0.535972 0.000000
0.164914 0.535972 0.000000
0.185529 0.535972 0.000000
0.206143 0.535972 0.000000
0.226757 0.535972 0.000000
0.247372 0.535972 0.000000
0.267986 0.535972 0.000000
0.288600 0.535972 0.000000
0.309215 0.535972 0.000000
0.329829 0.535972 0.000000
0.350443 0.535972 0.000000
0.371058 0.535972 0.000000
0.391672 0.535972 0.000000
0.412286 0.535972 0.000000
0.432900 0.535972 0.000000
0.453515 0.535972 0.000000
0.474129 0.535972 0.000000
0.494743 0.535972 0.000000
0.515358 0.535972 0.000000
0.535972 0.535972 0.000000
0.556586 0.535972 0.000000
0.577201 0.535972 0.000000
0.597815 0.535972 0.000000
0.618429 0.535972 0.000000
0.639043 0.535972 0.000000
0.659658 0.535972 0.000000
0.680272 0.535972 0.000000
0.700886 0.535972 0.000000
0.721501 0.535972 0.000000
0.742115 0.535972 0.000000
0.762729 0.535972 0.000000
0.783344 0.535972 0.000000
0.803958 0.535972 0.000000
0.824572 0.535972 0.000000
0.845187 0.535972 0.000000
0.865801 0.535972 0.000000
0.886415 0.535972 0.000000
0.907029 0.535972 0.000000
0.927644 0.535972 0.000000
0.948258 0.535972 0.000000
0.968872 0.535972 0.000000
0.989487 0.535972 0.000000
1.010101 0.535972 0.000000
0.000000 0.546279 0.000000
0.020614 0.546279 0.000000
0.041229 0.546279 0.000000
0.061843 0.546279 0.000000
0.082457 0.546279 0.000000
0.103072 0.546279 0.000000
0.123686 0.546279 0.000000
0.144300 0.546279 0.000000
0.164914 0.546279 0.000000
0.185529 0.546279 0.000000
0.206143 0.546279 0.000000
0.226757 0.546279 0.000000
0.247372 0.546279 0.000000
0.267986 0.546279 0.000000
0.288600 0.546279 0.000000
0.309215 0.546279 0.000000
0.329829 0.546279 0.000000
0.350443 0.546279 0.000000
0.371058 0.546279 0.000000
0.391672 0.546279 0.000000
0.412286 0.546279 0.000000
0.432900 0.546279 0.000000
0.453515 0.546279 0.000000
0.474129 0.546279 0.000000
0.494743 0.546279 0.000000
0.515358 0.546279 0.000000
0.535972 0.546279 0.000000
0.556586 0.546279 0.000000
0.577201 0.546279 0.000000
0.597815 0.546279 0.000000
0.618429 0.546279 0.000000
0.639043 0.546279 0.000000
0.659658 0.546279 0.000000
0.680272 0.546279 0.000000
0.700886 0.546279 0.000000
0.721501 0.546279 0.000000
0.742115 0.546279 0.000000
0.762729 0.546279 0.000000
0.783344 0.546279 0.000000
0.803958 0.546279 0.000000
0.824572 0.546279 0.000000
0.845187 0.546279 0.000000
0.865801 0.546279 0.000000
0.886415 0.546279 0.000000
0.907029 0.546279 0.000000
0.927644 0.546279 0.000000
0.948258 0.546279 0.000000
0.968872 0.546279 0.000000
0.989487 0.546279 0.000000
1.010101 0.546279 0.000000
0.000000 0.556586 0.000000
0.020614 0.556586 0.000000
0.041229 0.556586 0.000000
0.061843 0.556586 0.000000
0.082457 0.556586 0.000000
0.103072 0.556586 0.000000
0.123686 0.556586 0.000000
0.144300 0.556586 0.000000
0.164914 0.556586 0.000000
0.185529 0.556586 0.000000
0.206143 0.556586 0.000000
0.226757 0.556586 0.000000
0.247372 0.556586 0.000000
0.267986 0.556586 0.000000
0.288600 0.556586 0.000000
0.309215 0.556586 0.000000
0.329829 0.556586 0.000000
0.350443 0.556586 0.000000
0.371058 0.556586 0.000000
0.391672 0.556586 0.000000
0.412286 0.556586 0.000000
0.432900 0.556586 0.000000
0.453515 0.556586 0.000000
0.474129 0.556586 0.000000
0.494743 0.556586 0.000000
0.515358 0.556586 0.000000
0.535972 0.556586 0.000000
0.556586 0.556586 0.000000
0.577201 0.556586 0.000000
0.597815 0.556586 0.000000
0.618429 0.556586 0.000000
0.639043 0.556586 0.000000
0.659658 0.556586 0.000000
0.680272 0.556586 0.000000
0.700886 0.556586 0.000000
0.721501 0.556586 0.000000
0.742115 0.556586 0.000000
0.762729 0.556586 0.000000
0.783344 0.556586 0.000000
0.803958 0.556586 0.000000
0.824572 0.556586 0.000000
0.845187 0.556586 0.000000
0.865801 0.556586 0.000000
0.886415 0.556586 0.000000
0.907029 0.556586 0.000000
0.927644 0.556586 0.000000
0.948258 0.556586 0.000000
0.968872 0.556586 0.000000
0.989487 0.556586 0.000000
1.010101 0.556586 0.000000
0.000000 0.566893 0.000000
0.020614 0.566893 0.000000
0.041229 0.566893 0.000000
0.061843 0.566893 0.000000
0.082457 0.566893 0.000000
0.103072 0.566893 0.000000
0.123686 0.566893 0.000000
0.144300 0.566893 0.000000
0.164914 0.566893 0.000000
0.185529 0.566893 0.000000
0.206143 0.566893 0.000000
0.226757 0.566893 0.000000
0.247372 0.566893 0.000000
0.267986 0.566893 0.000000
0.288600 0.566893 0.000000
0.309215 0.566893 0.000000
0.329829 0.566893 0.000000
0.350443 0.566893 0.000000
0.371058 0.566893 0.000000
0.391672 0.566893 0.000000
0.412286 0.566893 0.000000
0.432900 0.566893 0.000000
0.453515 0.566893 0.000000
0.474129 0.566893 0.000000
0.494743 0.566893 0.000000
0.515358 0.566893 0.000000
0.535972 0.566893 0.000000
0.556586 0.566893 0.000000
0.577201 0.566893 0.000000
0.597815 0.566893 0.000000
0.618429 0.566893 0.000000
0.639043 0.566893 0.000000
0.659658 0.566893 0.000000
0.680272 0.566893 0.000000
0.700886 0.566893 0.000000
0.721501 0.566893 0.000000
0.742115 0.566893 0.000000
0.762729 0.566893 0.000000
0.783344 0.566893 0.000000
0.803958 0.566893 0.000000
0.824572 0.566893 0.000000
0.845187 0.566893 0.000000
0.865801 0.566893 0.000000
0.886415 0.566893 0.000000
0.907029 0.566893 0.000000
0.927644 0.566893 0.000000
0.948258 0.566893 0.000000
0.968872 0.566893 0.000000
0.989487 0.566893 0.000000
1.010101 0.566893 0.000000
0.000000 0.577201 0.000000
0.020614 0.577201 0.000000
0.041229 0.577201 0.000000
0.061843 0.577201 0.000000
0.082457 0.577201 0.000000
0.103072 0.577201 0.000000
0.123686 0.577201 0.000000
0.144300 0.577201 0.000000
0.164914 0.577201 0.000000
0.185529 0.577201 0.000000
0.206143 0.577201 0.000000
0.226757 0.577201 0.000000
0.247372 0.577201 0.000000
0.267986 0.577201 0.000000
0.288600 0.577201 0.000000
0.309215 0.577201 0.000000
[...]
POINT_DATA 2500
SCALARS P float 1
LOOKUP_TABLE default
 0.000000
 0.033476
 0.066952
 0.100429
 0.133905
 0.167381
 0.200857
 0.234333
 0.267809
 0.301286
 0.334762
 0.368238
 0.401714
 0.435190
 0.468667
 0.502143
 0.535619
 0.569095
 0.602571
 0.636047
 0.669524
 0.703000
 0.736476
 0.769952
 0.803428
 0.836905
 0.870381
 0.903857
 0.937333
 0.970809
 1.004285
 1.037762
 1.071238
 1.104714
 1.138190
 1.171666
 1.205142
 1.238619
 1.272095
 1.305571
 1.339047
 1.372523
 1.406000
 1.439476
 1.472952
 1.506428
 1.539904
 1.573380
 1.606857
 1.640333
 0.000000
 0.033816
 0.067632
 0.101448
 0.135264
 0.169080
 0.202896
 0.236712
 0.270528
 0.304344
 0.338160
 0.371976
 0.405792
 0.439608
 0.473425
 0.507241
 0.541057
 0.574873
 0.608689
 0.642505
 0.676321
 0.710137
 0.743953
 0.777769
 0.811585
 0.845401
 0.879217
 0.913033
 0.946849
 0.980665
 1.014481
 1.048297
 1.082113
 1.115929
 1.149745
 1.183561
 1.217377
 1.251193
 1.285009
 1.318825
 1.352641
 1.386457
 1.420274
 1.454090
 1.487906
 1.521722
 1.555538
 1.589354
 1.623170
 1.656986
 0.000000
 0.034159
 0.068319
 0.102478
 0.136637
 0.170797
 0.204956
 0.239115
 0.273275
 0.307434
 0.341593
 0.375753
 0.409912
 0.444071
 0.478231
 0.512390
 0.546550
 0.580709
 0.614868
 0.649028
 0.683187
 0.717346
 0.751506
 0.785665
 0.819824
 0.853984
 0.888143
 0.922302
 0.956462
 0.990621
 1.024780
 1.058940
 1.093099
 1.127258
 1.161418
 1.195577
 1.229736
 1.263896
 1.298055
 1.332214
 1.366374
 1.400533
 1.434692
 1.468852
 1.503011
 1.537170
 1.571330
 1.605489
 1.639648
 1.673808
 0.000000
 0.034506
 0.069012
 0.103518
 0.138025
 0.172531
 0.207037
 0.241543
 0.276049
 0.310555
 0.345061
 0.379567
 0.414074
 0.448580
 0.483086
 0.517592
 0.552098
 0.586604
 0.621110
 0.655617
 0.690123
 0.724629
 0.759135
 0.793641
 0.828147
 0.862653
 0.897160
 0.931666
 0.966172
 1.000678
 1.035184
 1.069690
 1.104196
 1.138702
 1.173209
 1.207715
 1.242221
 1.276727
 1.311233
 1.345739
 1.380245
 1.414752
 1.449258
 1.483764
 1.518270
 1.552776
 1.587282
 1.621788
 1.656294
 1.690801
 0.000000
 0.034856
 0.069713
 0.104569
 0.139426
 0.174282
 0.209139
 0.243995
 0.278852
 0.313708
 0.348564
 0.383421
 0.418277
 0.453134
 0.487990
 0.522847
 0.557703
 0.592560
 0.627416
 0.662273
 0.697129
 0.731985
 0.766842
 0.801698
 0.836555
 0.871411
 0.906268
 0.941124
 0.975981
 1.010837
 1.045693
 1.080550
 1.115406
 1.150263
 1.185119
 1.219976
 1.254832
 1.289689
 1.324545
 1.359401
 1.394258
 1.429114
 1.463971
 1.498827
 1.533684
 1.568540
 1.603397
 1.638253
 1.673109
 1.707966
 0.000000
 0.035210
 0.070421
 0.105631
 0.140841
 0.176052
 0.211262
 0.246472
 0.281683
 0.316893
 0.352103
 0.387313
 0.422524
 0.457734
 0.492944
 0.528155
 0.563365
 0.598575
 0.633786
 0.668996
 0.704206
 0.739417
 0.774627
 0.809837
 0.845048
 0.880258
 0.915468
 0.950679
 0.985889
 1.021099
 1.056310
 1.091520
 1.126730
 1.161940
 1.197151
 1.232361
 1.267571
 1.302782
 1.337992
 1.373202
 1.408413
 1.443623
 1.478833
 1.514044
 1.549254
 1.584464
 1.619675
 1.654885
 1.690095
 1.725305
 0.000000
 0.035568
 0.071136
 0.106703
 0.142271
 0.177839
 0.213407
 0.248974
 0.284542
 0.320110
 0.355678
 0.391246
 0.426813
 0.462381
 0.497949
 0.533517
 0.569084
 0.604652
 0.640220
 0.675788
 0.711356
 0.746923
 0.782491
 0.818059
 0.853627
 0.889194
 0.924762
 0.960330
 0.995898
 1.031466
 1.067033
 1.102601
 1.138169
 1.173737
 1.209304
 1.244872
 1.280440
 1.316008
 1.351576
 1.387143
 1.422711
 1.458279
 1.493847
 1.529414
 1.564982
 1.600550
 1.636118
 1.671686
 1.707253
 1.742821
 0.000000
 0.035929
 0.071858
 0.107787
 0.143715
 0.179644
 0.215573
 0.251502
 0.287431
 0.323360
 0.359289
 0.395218
 0.431146
 0.467075
 0.503004
 0.538933
 0.574862
 0.610791
 0.646720
 0.682649
 0.718577
 0.754506
 0.790435
 0.826364
 0.862293
 0.898222
 0.934151
 0.970079
 1.006008
 1.041937
 1.077866
 1.113795
 1.149724
 1.185653
 1.221582
 1.257510
 1.293439
 1.329368
 1.365297
 1.401226
 1.437155
 1.473084
 1.509013
 1.544941
 1.580870
 1.616799
 1.652728
 1.688657
 1.724586
 1.760515
 0.000000
 0.036294
 0.072587
 0.108881
 0.145175
 0.181468
 0.217762
 0.254055
 0.290349
 0.326643
 0.362936
 0.399230
 0.435524
 0.471817
 0.508111
 0.544404
 0.580698
 0.616992
 0.653285
 0.689579
 0.725873
 0.762166
 0.798460
 0.834753
 0.871047
 0.907341
 0.943634
 0.979928
 1.016222
 1.052515
 1.088809
 1.125102
 1.161396
 1.197690
 1.233983
 1.270277
 1.306571
 1.342864
 1.379158
 1.415451
 1.451745
 1.488039
 1.524332
 1.560626
 1.596920
 1.633213
 1.669507
 1.705800
 1.742094
 1.778388
 0.000000
 0.036662
 0.073324
 0.109986
 0.146648
 0.183310
 0.219973
 0.256635
 0.293297
 0.329959
 0.366621
 0.403283
 0.439945
 0.476607
 0.513269
 0.549931
 0.586593
 0.623255
 0.659918
 0.696580
 0.733242
 0.769904
 0.806566
 0.843228
 0.879890
 0.916552
 0.953214
 0.989876
 1.026538
 1.063200
 1.099863
 1.136525
 1.173187
 1.209849
 1.246511
 1.283173
 1.319835
 1.356497
 1.393159
 1.429821
 1.466483
 1.503146
 1.539808
 1.576470
 1.613132
 1.649794
 1.686456
 1.723118
 1.759780
 1.796442
 0.000000
 0.037034
 0.074069
 0.111103
 0.148137
 0.185171
 0.222206
 0.259240
 0.296274
 0.333309
 0.370343
 0.407377
 0.444411
 0.481446
 0.518480
 0.555514
 0.592549
 0.629583
 0.666617
 0.703651
 0.740686
 0.777720
 0.814754
 0.851789
 0.888823
 0.925857
 0.962891
 0.999926
 1.036960
 1.073994
 1.111029
 1.148063
 1.185097
 1.222131
 1.259166
 1.296200
 1.333234
 1.370269
 1.407303
 1.444337
 1.481371
 1.518406
 1.555440
 1.592474
 1.629509
 1.666543
 1.703577
 1.740611
 1.777646
 1.814680
 0.000000
 0.037410
 0.074821
 0.112231
 0.149641
 0.187051
 0.224462
 0.261872
 0.299282
 0.336692
 0.374103
 0.411513
 0.448923
 0.486333
 0.523744
 0.561154
 0.598564
 0.635975
 0.673385
 0.710795
 0.748205
 0.785616
 0.823026
 0.860436
 0.897846
 0.935257
 0.972667
 1.010077
 1.047487
 1.084898
 1.122308
 1.159718
 1.197128
 1.234539
 1.271949
 1.309359
 1.346770
 1.384180
 1.421590
 1.459000
 1.496411
 1.533821
 1.571231
 1.608641
 1.646052
 1.683462
 1.720872
 1.758282
 1.795693
 1.833103
 0.000000
 0.037790
 0.075580
 0.113370
 0.151160
 0.188950
 0.226740
 0.264530
 0.302320
 0.340111
 0.377901
 0.415691
 0.453481
 0.491271
 0.529061
 0.566851
 0.604641
 0.642431
 0.680221
 0.718011
 0.755801
 0.793591
 0.831381
 0.869171
 0.906961
 0.944752
 0.982542
 1.020332
 1.058122
 1.095912
 1.133702
 1.171492
 1.209282
 1.247072
 1.284862
 1.322652
 1.360442
 1.398232
 1.436022
 1.473812
 1.511602
 1.549392
 1.587183
 1.624973
 1.662763
 1.700553
 1.738343
 1.776133
 1.813923
 1.851713
 0.000000
 0.038174
 0.076347
 0.114521
 0.152695
 0.190869
 0.229042
 0.267216
 0.305390
 0.343563
 0.381737
 0.419911
 0.458085
 0.496258
 0.534432
 0.572606
 0.610779
 0.648953
 0.687127
 0.725301
 0.763474
 0.801648
 0.839822
 0.877995
 0.916169
 0.954343
 0.992517
 1.030690
 1.068864
 1.107038
 1.145211
 1.183385
 1.221559
 1.259733
 1.297906
 1.336080
 1.374254
 1.412427
 1.450601
 1.488775
 1.526948
 1.565122
 1.603296
 1.641470
 1.679643
 1.717817
 1.755991
 1.794164
 1.832338
 1.870512
 0.000000
 0.038561
 0.077123
 0.115684
 0.154245
 0.192806
 0.231368
 0.269929
 0.308490
 0.347051
 0.385613
 0.424174
 0.462735
 0.501296
 0.539858
 0.578419
 0.616980
 0.655541
 0.694103
 0.732664
 0.771225
 0.809786
 0.848348
 0.886909
 0.925470
 0.964031
 1.002593
 1.041154
 1.079715
 1.118277
 1.156838
 1.195399
 1.233960
 1.272522
 1.311083
 1.349644
 1.388205
 1.426767
 1.465328
 1.503889
 1.542450
 1.581012
 1.619573
 1.658134
 1.696695
 1.735257
 1.773818
 1.812379
 1.850940
 1.889502
 0.000000
 0.038953
 0.077905
 0.116858
 0.155811
 0.194764
 0.233716
 0.272669
 0.311622
 0.350575
 0.389527
 0.428480
 0.467433
 0.506386
 0.545338
 0.584291
 0.623244
 0.662197
 0.701149
 0.740102
 0.779055
 0.818008
 0.856960
 0.895913
 0.934866
 0.973819
 1.012771
 1.051724
 1.090677
 1.129629
 1.168582
 1.207535
 1.246488
 1.285440
 1.324393
 1.363346
 1.402299
 1.441251
 1.480204
 1.519157
 1.558110
 1.597062
 1.636015
 1.674968
 1.713921
 1.752873
 1.791826
 1.830779
 1.869731
 1.908684
 0.000000
 0.039348
 0.078696
 0.118045
 0.157393
 0.196741
 0.236089
 0.275437
 0.314786
 0.354134
 0.393482
 0.432830
 0.472178
 0.511527
 0.550875
 0.590223
 0.629571
 0.668919
 0.708268
 0.747616
 0.786964
 0.826312
 0.865660
 0.905008
 0.944357
 0.983705
 1.023053
 1.062401
 1.101749
 1.141098
 1.180446
 1.219794
 1.259142
 1.298490
 1.337839
 1.377187
 1.416535
 1.455883
 1.495231
 1.534580
 1.573928
 1.613276
 1.652624
 1.691972
 1.731321
 1.770669
 1.810017
 1.849365
 1.888713
 1.928061
 0.000000
 0.039748
 0.079495
 0.119243
 0.158991
 0.198738
 0.238486
 0.278234
 0.317981
 0.357729
 0.397477
 0.437224
 0.476972
 0.516720
 0.556467
 0.596215
 0.635963
 0.675710
 0.715458
 0.755206
 0.794953
 0.834701
 0.874449
 0.914196
 0.953944
 0.993692
 1.033439
 1.073187
 1.112935
 1.152682
 1.192430
 1.232178
 1.271925
 1.311673
 1.351421
 1.391168
 1.430916
 1.470664
 1.510411
 1.550159
 1.589907
 1.629654
 1.669402
 1.709150
 1.748897
 1.788645
 1.828393
 1.868140
 1.907888
 1.947636
 0.000000
 0.040151
 0.080302
 0.120454
 0.160605
 0.200756
 0.240907
 0.281058
 0.321210
 0.361361
 0.401512
 0.441663
 0.481814
 0.521965
 0.562117
 0.602268
 0.642419
 0.682570
 0.722721
 0.762873
 0.803024
 0.843175
 0.883326
 0.923477
 0.963629
 1.003780
 1.043931
 1.084082
 1.124233
 1.164385
 1.204536
 1.244687
 1.284838
 1.324989
 1.365140
 1.405292
 1.445443
 1.485594
 1.525745
 1.565896
 1.606048
 1.646199
 1.686350
 1.726501
 1.766652
 1.806804
 1.846955
 1.887106
 1.927257
 1.967408
 0.000000
 0.040559
 0.081118
 0.121676
 0.162235
 0.202794
 0.243353
 0.283912
 0.324471
 0.365029
 0.405588
 0.446147
 0.486706
 0.527265
 0.567823
 0.608382
 0.648941
 0.689500
 0.730059
 0.770617
 0.811176
 0.851735
 0.892294
 0.932853
 0.973412
 1.013970
 1.054529
 1.095088
 1.135647
 1.176206
 1.216764
 1.257323
 1.297882
 1.338441
 1.379000
 1.419558
 1.460117
 1.500676
 1.541235
 1.581794
 1.622352
 1.662911
 1.703470
 1.744029
 1.784588
 1.825147
 1.865705
 1.906264
 1.946823
 1.987382
 0.000000
 0.040971
 0.081941
 0.122912
 0.163882
 0.204853
 0.245823
 0.286794
 0.327765
 0.368735
 0.409706
 0.450676
 0.491647
 0.532617
 0.573588
 0.614559
 0.655529
 0.696500
 0.737470
 0.778441
 0.819411
 0.860382
 0.901353
 0.942323
 0.983294
 1.024264
 1.065235
 1.106205
 1.147176
 1.188147
 1.229117
 1.270088
 1.311058
 1.352029
 1.392999
 1.433970
 1.474941
 1.515911
 1.556882
 1.597852
 1.638823
 1.679793
 1.720764
 1.761735
 1.802705
 1.843676
 1.884646
 1.925617
 1.966587
 2.007558
 0.000000
 0.041387
 0.082773
 0.124160
 0.165546
 0.206933
 0.248319
 0.289706
 0.331092
 0.372479
 0.413865
 0.455252
 0.496638
 0.538025
 0.579411
 0.620798
 0.662184
 0.703571
 0.744957
 0.786344
 0.827730
 0.869117
 0.910503
 0.951890
 0.993276
 1.034663
 1.076049
 1.117436
 1.158822
 1.200209
 1.241595
 1.282982
 1.324368
 1.365755
 1.407141
 1.448528
 1.489914
 1.531301
 1.572687
 1.614074
 1.655461
 1.696847
 1.738234
 1.779620
 1.821007
 1.862393
 1.903780
 1.945166
 1.986553
 2.027939
 0.000000
 0.041807
 0.083613
 0.125420
 0.167227
 0.209033
 0.250840
 0.292647
 0.334453
 0.376260
 0.418067
 0.459873
 0.501680
 0.543487
 0.585293
 0.627100
 0.668907
 0.710714
 0.752520
 0.794327
 0.836134
 0.877940
 0.919747
 0.961554
 1.003360
 1.045167
 1.086974
 1.128780
 1.170587
 1.212394
 1.254200
 1.296007
 1.337814
 1.379620
 1.421427
 1.463234
 1.505040
 1.546847
 1.588654
 1.630460
 1.672267
 1.714074
 1.755880
 1.797687
 1.839494
 1.881300
 1.923107
 1.964914
 2.006720
 2.048527
 0.000000
 0.042231
 0.084462
 0.126693
 0.168924
 0.211156
 0.253387
 0.295618
 0.337849
 0.380080
 0.422311
 0.464542
 0.506773
 0.549004
 0.591235
 0.633467
 0.675698
 0.717929
 0.760160
 0.802391
 0.844622
 0.886853
 0.929084
 0.971315
 1.013547
 1.055778
 1.098009
 1.140240
 1.182471
 1.224702
 1.266933
 1.309164
 1.351395
 1.393626
 1.435858
 1.478089
 1.520320
 1.562551
 1.604782
 1.647013
 1.689244
 1.731475
 1.773706
 1.815937
 1.858169
 1.900400
 1.942631
 1.984862
 2.027093
 2.069324
 0.000000
 0.042660
 0.085320
 0.127980
 0.170639
 0.213299
 0.255959
 0.298619
 0.341279
 0.383939
 0.426598
 0.469258
 0.511918
 0.554578
 0.597238
 0.639898
 0.682557
 0.725217
 0.767877
 0.810537
 0.853197
 0.895857
 0.938517
 0.981176
 1.023836
 1.066496
 1.109156
 1.151816
 1.194476
 1.237135
 1.279795
 1.322455
 1.365115
 1.407775
 1.450435
 1.493094
 1.535754
 1.578414
 1.621074
 1.663734
 1.706394
 1.749054
 1.791713
 1.834373
 1.877033
 1.919693
 1.962353
 2.005013
 2.047672
 2.090332
 0.000000
 0.043093
 0.086186
 0.129279
 0.172372
 0.215465
 0.258558
 0.301651
 0.344743
 0.387836
 0.430929
 0.474022
 0.517115
 0.560208
 0.603301
 0.646394
 0.689487
 0.732580
 0.775673
 0.818766
 0.861859
 0.904952
 0.948045
 0.991137
 1.034230
 1.077323
 1.120416
 1.163509
 1.206602
 1.249695
 1.292788
 1.335881
 1.378974
 1.422067
 1.465160
 1.508253
 1.551346
 1.594439
 1.637531
 1.680624
 1.723717
 1.766810
 1.809903
 1.852996
 1.896089
 1.939182
 1.982275
 2.025368
 2.068461
 2.111554
 0.000000
 0.043530
 0.087061
 0.130591
 0.174122
 0.217652
 0.261183
 0.304713
 0.348243
 0.391774
 0.435304
 0.478835
 0.522365
 0.565895
 0.609426
 0.652956
 0.696487
 0.740017
 0.783548
 0.827078
 0.870608
 0.914139
 0.957669
 1.001200
 1.044730
 1.088261
 1.131791
 1.175321
 1.218852
 1.262382
 1.305913
 1.349443
 1.392973
 1.436504
 1.480034
 1.523565
 1.567095
 1.610626
 1.654156
 1.697686
 1.741217
 1.784747
 1.828278
 1.871808
 1.915338
 1.958869
 2.002399
 2.045930
 2.089460
 2.132991
 0.000000
 0.043972
 0.087945
 0.131917
 0.175889
 0.219862
 0.263834
 0.307806
 0.351779
 0.395751
 0.439723
 0.483696
 0.527668
 0.571641
 0.615613
 0.659585
 0.703558
 0.747530
 0.791502
 0.835475
 0.879447
 0.923419
 0.967392
 1.011364
 1.055336
 1.099309
 1.143281
 1.187253
 1.231226
 1.275198
 1.319170
 1.363143
 1.407115
 1.451087
 1.495060
 1.539032
 1.583005
 1.626977
 1.670949
 1.714922
 1.758894
 1.802866
 1.846839
 1.890811
 1.934783
 1.978756
 2.022728
 2.066700
 2.110673
 2.154645
 0.000000
 0.044419
 0.088838
 0.133256
 0.177675
 0.222094
 0.266513
 0.310931
 0.355350
 0.399769
 0.444188
 0.488606
 0.533025
 0.577444
 0.621863
 0.666281
 0.710700
 0.755119
 0.799538
 0.843957
 0.888375
 0.932794
 0.977213
 1.021632
 1.066050
 1.110469
 1.154888
 1.199307
 1.243725
 1.288144
 1.332563
 1.376982
 1.421400
 1.465819
 1.510238
 1.554657
 1.599075
 1.643494
 1.687913
 1.732332
 1.776751
 1.821169
 1.865588
 1.910007
 1.954426
 1.998844
 2.043263
 2.087682
 2.132101
 2.176519
 0.000000
 0.044870
 0.089739
 0.134609
 0.179479
 0.224349
 0.269218
 0.314088
 0.358958
 0.403827
 0.448697
 0.493567
 0.538437
 0.583306
 0.628176
 0.673046
 0.717915
 0.762785
 0.807655
 0.852524
 0.897394
 0.942264
 0.987134
 1.032003
 1.076873
 1.121743
 1.166612
 1.211482
 1.256352
 1.301222
 1.346091
 1.390961
 1.435831
 1.480700
 1.525570
 1.570440
 1.615310
 1.660179
 1.705049
 1.749919
 1.794788
 1.839658
 1.884528
 1.929398
 1.974267
 2.019137
 2.064007
 2.108876
 2.153746
 2.198616
 0.000000
 0.045325
 0.090650
 0.135976
 0.181301
 0.226626
 0.271951
 0.317277
 0.362602
 0.407927
 0.453252
 0.498578
 0.543903
 0.589228
 0.634553
 0.679879
 0.725204
 0.770529
 0.815854
 0.861179
 0.906505
 0.951830
 0.997155
 1.042480
 1.087806
 1.133131
 1.178456
 1.223781
 1.269107
 1.314432
 1.359757
 1.405082
 1.450408
 1.495733
 1.541058
 1.586383
 1.631708
 1.677034
 1.722359
 1.767684
 1.813009
 1.858335
 1.903660
 1.948985
 1.994310
 2.039636
 2.084961
 2.130286
 2.175611
 2.220936
 0.000000
 0.045785
 0.091571
 0.137356
 0.183142
 0.228927
 0.274712
 0.320498
 0.366283
 0.412068
 0.457854
 0.503639
 0.549425
 0.595210
 0.640995
 0.686781
 0.732566
 0.778352
 0.824137
 0.869922
 0.915708
 0.961493
 1.007278
 1.053064
 1.098849
 1.144635
 1.190420
 1.236205
 1.281991
 1.327776
 1.373562
 1.419347
 1.465132
 1.510918
 1.556703
 1.602488
 1.648274
 1.694059
 1.739845
 1.785630
 1.831415
 1.877201
 1.922986
 1.968772
 2.014557
 2.060342
 2.106128
 2.151913
 2.197698
 2.243484
 0.000000
 0.046250
 0.092500
 0.138751
 0.185001
 0.231251
 0.277501
 0.323751
 0.370002
 0.416252
 0.462502
 0.508752
 0.555002
 0.601253
 0.647503
 0.693753
 0.740003
 0.786254
 0.832504
 0.878754
 0.925004
 0.971254
 1.017505
 1.063755
 1.110005
 1.156255
 1.202505
 1.248756
 1.295006
 1.341256
 1.387506
 1.433756
 1.480007
 1.526257
 1.572507
 1.618757
 1.665007
 1.711258
 1.757508
 1.803758
 1.850008
 1.896258
 1.942509
 1.988759
 2.035009
 2.081259
 2.127509
 2.173760
 2.220010
 2.266260
 0.000000
 0.046720
 0.093439
 0.140159
 0.186879
 0.233599
 0.280318
 0.327038
 0.373758
 0.420478
 0.467197
 0.513917
 0.560637
 0.607357
 0.654076
 0.700796
 0.747516
 0.794236
 0.840955
 0.887675
 0.934395
 0.981115
 1.027834
 1.074554
 1.121274
 1.167994
 1.214713
 1.261433
 1.308153
 1.354873
 1.401592
 1.448312
 1.495032
 1.541752
 1.588471
 1.635191
 1.681911
 1.728631
 1.775350
 1.822070
 1.868790
 1.915510
 1.962229
 2.008949
 2.055669
 2.102389
 2.149108
 2.195828
 2.242548
 2.289268
 0.000000
 0.047194
 0.094388
 0.141582
 0.188776
 0.235970
 0.283164
 0.330358
 0.377552
 0.424746
 0.471941
 0.519135
 0.566329
 0.613523
 0.660717
 0.707911
 0.755105
 0.802299
 0.849493
 0.896687
 0.943881
 0.991075
 1.038269
 1.085463
 1.132657
 1.179851
 1.227045
 1.274239
 1.321433
 1.368628
 1.415822
 1.463016
 1.510210
 1.557404
 1.604598
 1.651792
 1.698986
 1.746180
 1.793374
 1.840568
 1.887762
 1.934956
 1.982150
 2.029344
 2.076538
 2.123732
 2.170926
 2.218120
 2.265315
 2.312509
 0.000000
 0.047673
 0.095346
 0.143020
 0.190693
 0.238366
 0.286039
 0.333712
 0.381385
 0.429059
 0.476732
 0.524405
 0.572078
 0.619751
 0.667424
 0.715098
 0.762771
 0.810444
 0.858117
 0.905790
 0.953464
 1.001137
 1.048810
 1.096483
 1.144156
 1.191829
 1.239503
 1.287176
 1.334849
 1.382522
 1.430195
 1.477868
 1.525542
 1.573215
 1.620888
 1.668561
 1.716234
 1.763907
 1.811581
 1.859254
 1.906927
 1.954600
 2.002273
 2.049947
 2.097620
 2.145293
 2.192966
 2.240639
 2.288312
 2.335986
 0.000000
 0.048157
 0.096314
 0.144471
 0.192629
 0.240786
 0.288943
 0.337100
 0.385257
 0.433414
 0.481572
 0.529729
 0.577886
 0.626043
 0.674200
 0.722357
 0.770515
 0.818672
 0.866829
 0.914986
 0.963143
 1.011300
 1.059458
 1.107615
 1.155772
 1.203929
 1.252086
 1.300243
 1.348401
 1.396558
 1.444715
 1.492872
 1.541029
 1.589186
 1.637343
 1.685501
 1.733658
 1.781815
 1.829972
 1.878129
 1.926286
 1.974444
 2.022601
 2.070758
 2.118915
 2.167072
 2.215229
 2.263387
 2.311544
 2.359701
 0.000000
 0.048646
 0.097292
 0.145938
 0.194584
 0.243230
 0.291876
 0.340522
 0.389168
 0.437815
 0.486461
 0.535107
 0.583753
 0.632399
 0.681045
 0.729691
 0.778337
 0.826983
 0.875629
 0.924275
 0.972921
 1.021567
 1.070213
 1.118859
 1.167505
 1.216152
 1.264798
 1.313444
 1.362090
 1.410736
 1.459382
 1.508028
 1.556674
 1.605320
 1.653966
 1.702612
 1.751258
 1.799904
 1.848550
 1.897196
 1.945842
 1.994488
 2.043135
 2.091781
 2.140427
 2.189073
 2.237719
 2.286365
 2.335011
 2.383657
 0.000000
 0.049140
 0.098280
 0.147420
 0.196560
 0.245700
 0.294840
 0.343979
 0.393119
 0.442259
 0.491399
 0.540539
 0.589679
 0.638819
 0.687959
 0.737099
 0.786239
 0.835379
 0.884519
 0.933659
 0.982798
 1.031938
 1.081078
 1.130218
 1.179358
 1.228498
 1.277638
 1.326778
 1.375918
 1.425058
 1.474198
 1.523338
 1.572478
 1.621617
 1.670757
 1.719897
 1.769037
 1.818177
 1.867317
 1.916457
 1.965597
 2.014737
 2.063877
 2.113017
 2.162157
 2.211297
 2.260436
 2.309576
 2.358716
 2.407856
 0.000000
 0.049639
 0.099278
 0.148916
 0.198555
 0.248194
 0.297833
 0.347472
 0.397110
 0.446749
 0.496388
 0.546027
 0.595666
 0.645304
 0.694943
 0.744582
 0.794221
 0.843860
 0.893498
 0.943137
 0.992776
 1.042415
 1.092054
 1.141692
 1.191331
 1.240970
 1.290609
 1.340248
 1.389886
 1.439525
 1.489164
 1.538803
 1.588442
 1.638080
 1.687719
 1.737358
 1.786997
 1.836636
 1.886274
 1.935913
 1.985552
 2.035191
 2.084830
 2.134468