# vtk DataFile Version 2.0 
Grid
ASCII
DATASET STRUCTURED_GRID
DIMENSIONS 50 50 1
POINTS 2500 float
1.010101 0.505051 0.000000
1.030715 0.505051 0.000000
1.051330 0.505051 0.000000
1.071944 0.505051 0.000000
1.092558 0.505051 0.000000
1.113173 0.505051 0.000000
1.133787 0.505051 0.000000
1.154401 0.505051 0.000000
1.175015 0.505051 0.000000
1.195630 0.505051 0.000000
1.216244 0.505051 0.000000
1.236858 0.505051 0.000000
1.257473 0.505051 0.000000
1.278087 0.505051 0.000000
1.298701 0.505051 0.000000
1.319316 0.505051 0.000000
1.339930 0.505051 0.000000
1.360544 0.505051 0.000000
1.381159 0.505051 0.000000
1.401773 0.505051 0.000000
1.422387 0.505051 0.000000
1.443001 0.505051 0.000000
1.463616 0.505051 0.000000
1.484230 0.505051 0.000000
1.504844 0.505051 0.000000
1.525459 0.505051 0.000000
1.546073 0.505051 0.000000
1.566687 0.505051 0.000000
1.587302 0.505051 0.000000
1.607916 0.505051 0.000000
1.628530 0.505051 0.000000
1.649145 0.505051 0.000000
1.669759 0.505051 0.000000
1.690373 0.505051 0.000000
1.710987 0.505051 0.000000
1.731602 0.505051 0.000000
1.752216 0.505051 0.000000
1.772830 0.505051 0.000000
1.793445 0.505051 0.000000
1.814059 0.505051 0.000000
1.834673 0.505051 0.000000
1.855288 0.505051 0.000000
1.875902 0.505051 0.000000
1.896516 0.505051 0.000000
1.917130 0.505051 0.000000
1.937745 0.505051 0.000000
1.958359 0.505051 0.000000
1.978973 0.505051 0.000000
1.999588 0.505051 0.000000
2.020202 0.505051 0.000000
1.010101 0.515358 0.000000
1.030715 0.515358 0.000000
1.051330 0.515358 0.000000
1.071944 0.515358 0.000000
1.092558 0.515358 0.000000
1.113173 0.515358 0.000000
1.133787 0.515358 0.000000
1.154401 0.515358 0.000000
1.175015 0.515358 0.000000
1.195630 0.515358 0.000000
1.216244 0.515358 0.000000
1.236858 0.515358 0.000000
1.257473 0.515358 0.000000
1.278087 0.515358 0.000000
1.298701 0.515358 0.000000
1.319316 0.515358 0.000000
1.339930 0.515358 0.000000
1.360544 0.515358 0.000000
1.381159 0.515358 0.000000
1.401773 0.515358 0.000000
1.422387 0.515358 0.000000
1.443001 0.515358 0.000000
1.463616 0.515358 0.000000
1.484230 0.515358 0.000000
1.504844 0.515358 0.000000
1.525459 0.515358 0.000000
1.546073 0.515358 0.000000
1.566687 0.515358 0.000000
1.587302 0.515358 0.000000
1.607916 0.515358 0.000000
1.628530 0.515358 0.000000
1.649145 0.515358 0.000000
1.669759 0.515358 0.000000
1.690373 0.515358 0.000000
1.710987 0.515358 0.000000
1.731602 0.515358 0.000000
1.752216 0.515358 0.000000
1.772830 0.515358 0.000000
1.793445 0.515358 0.000000
1.814059 0.515358 0.000000
1.834673 0.515358 0.000000
1.855288 0.515358 0.000000
1.875902 0.515358 0.000000
1.896516 0.515358 0.000000
1.917130 0.515358 0.000000
1.937745 0.515358 0.000000
1.958359 0.515358 0.000000
1.978973 0.515358 0.000000
1.999588 0.515358 0.000000
2.020202 0.515358 0.000000
1.010101 0.525665 0.000000
1.030715 0.525665 0.000000
1.051330 0.525665 0.000000
1.071944 0.525665 0.000000
1.092558 0.525665 0.000000
1.113173 0.525665 0.000000
1.133787 0.525665 0.000000
1.154401 0.525665 0.000000
1.175015 0.525665 0.000000
1.195630 0.525665 0.000000
1.216244 0.525665 0.000000
1.236858 0.525665 0.000000
1.257473 0.525665 0.000000
1.278087 0.525665 0.000000
1.298701 0.525665 0.000000
1.319316 0.525665 0.000000
1.339930 0.525665 0.000000
1.360544 0.525665 0.000000
1.381159 0.525665 0.000000
1.401773 0.525665 0.000000
1.422387 0.525665 0.000000
1.443001 0.525665 0.000000
1.463616 0.525665 0.000000
1.484230 0.525665 0.000000
1.504844 0.525665 0.000000
1.525459 0.525665 0.000000
1.546073 0.525665 0.000000
1.566687 0.525665 0.000000
1.587302 0.525665 0.000000
1.607916 0.525665 0.000000
1.628530 0.525665 0.000000
1.649145 0.525665 0.000000
1.669759 0.525665 0.000000
1.690373 0.525665 0.000000
1.710987 0.525665 0.000000
1.731602 0.525665 0.000000
1.752216 0.525665 0.000000
1.772830 0.525665 0.000000
1.793445 0.525665 0.000000
1.814059 0.525665 0.000000
1.834673 0.525665 0.000000
1.855288 0.525665 0.000000
1.875902 0.525665 0.000000
1.896516 0.525665 0.000000
1.917130 0.525665 0.000000
1.937745 0.525665 0.000000
1.958359 0.525665 0.000000
1.978973 0.525665 0.000000
1.999588 0.525665 0.000000
2.020202 0.525665 0.000000
1.010101 0.535972 0.000000
1.030715 0.535972 0.000000
1.051330 0.535972 0.000000
1.071944 0.535972 0.000000
1.092558 0.535972 0.000000
1.113173 0.535972 0.000000
1.133787 0.535972 0.000000
1.154401 0.535972 0.000000
1.175015 0.535972 0.000000
1.195630 0.535972 0.000000
1.216244 0.535972 0.000000
1.236858 0.535972 0.000000
1.257473 0.535972 0.000000
1.278087 0.535972 0.000000
1.298701 0.535972 0.000000
1.319316 0.535972 0.000000
1.339930 0.535972 0.000000
1.360544 0.535972 0.000000
1.381159 0.535972 0.000000
1.401773 0.535972 0.000000
1.422387 0.535972 0.000000
1.443001 0.535972 0.000000
1.463616 0.535972 0.000000
1.484230 0.535972 0.000000
1.504844 0.535972 0.000000
1.525459 0.535972 0.000000
1.546073 0.535972 0.000000
1.566687 0.535972 0.000000
1.587302 0.535972 0.000000
1.607916 0.535972 0.000000
1.628530 0.535972 0.000000
1.649145 0.535972 0.000000
1.669759 0.535972 0.000000
1.690373 0.535972 0.000000
1.710987 0.535972 0.000000
1.731602 0.535972 0.000000
1.752216 0.535972 0.000000
1.772830 0.535972 0.000000
1.793445 0.535972 0.000000
1.814059 0.535972 0.000000
1.834673 0.535972 0.000000
1.855288 0.535972 0.000000
1.875902 0.535972 0.000000
1.896516 0.535972 0.000000
1.917130 0.535972 0.000000
1.937745 0.535972 0.000000
1.958359 0.535972 0.000000
1.978973 0.535972 0.000000
1.999588 0.535972 0.000000
2.020202 0.535972 0.000000
1.010101 0.546279 0.000000
1.030715 0.546279 0.000000
1.051330 0.546279 0.000000
1.071944 0.546279 0.000000
1.092558 0.546279 0.000000
1.113173 0.546279 0.000000
1.133787 0.546279 0.000000
1.154401 0.546279 0.000000
1.175015 0.546279 0.000000
1.195630 0.546279 0.000000
1.216244 0.546279 0.000000
1.236858 0.546279 0.000000
1.257473 0.546279 0.000000
1.278087 0.546279 0.000000
1.298701 0.546279 0.000000
1.319316 0.546279 0.000000
1.339930 0.546279 0.000000
1.360544 0.546279 0.000000
1.381159 0.546279 0.000000
1.401773 0.546279 0.000000
1.422387 0.546279 0.000000
1.443001 0.546279 0.000000
1.463616 0.546279 0.000000
1.484230 0.546279 0.000000
1.504844 0.546279 0.000000
1.525459 0.546279 0.000000
1.546073 0.546279 0.000000
1.566687 0.546279 0.000000
1.587302 0.546279 0.000000
1.607916 0.546279 0.000000
1.628530 0.546279 0.000000
1.649145 0.546279 0.000000
1.669759 0.546279 0.000000
1.690373 0.546279 0.000000
1.710987 0.546279 0.000000
1.731602 0.546279 0.000000
1.752216 0.546279 0.000000
1.772830 0.546279 0.000000
1.793445 0.546279 0.000000
1.814059 0.546279 0.000000
1.834673 0.546279 0.000000
1.855288 0.546279 0.000000
1.875902 0.546279 0.000000
1.896516 0.546279 0.000000
1.917130 0.546279 0.000000
1.937745 0.546279 0.000000
1.958359 0.546279 0.000000
1.978973 0.546279 0.000000
1.999588 0.546279 0.000000
2.020202 0.546279 0.000000
1.010101 0.556586 0.000000
1.030715 0.556586 0.000000
1.051330 0.556586 0.000000
1.071944 0.556586 0.000000
1.092558 0.556586 0.000000
1.113173 0.556586 0.000000
1.133787 0.556586 0.000000
1.154401 0.556586 0.000000
1.175015 0.556586 0.000000
1.195630 0.556586 0.000000
1.216244 0.556586 0.000000
1.236858 0.556586 0.000000
1.257473 0.556586 0.000000
1.278087 0.556586 0.000000
1.298701 0.556586 0.000000
1.319316 0.556586 0.000000
1.339930 0.556586 0.000000
1.360544 0.556586 0.000000
1.381159 0.556586 0.000000
1.401773 0.556586 0.000000
1.422387 0.556586 0.000000
1.443001 0.556586 0.000000
1.463616 0.556586 0.000000
1.484230 0.556586 0.000000
1.504844 0.556586 0.000000
1.525459 0.556586 0.000000
1.546073 0.556586 0.000000
1.566687 0.556586 0.000000
1.587302 0.556586 0.000000
1.607916 0.556586 0.000000
1.628530 0.556586 0.000000
1.649145 0.556586 0.000000
1.669759 0.556586 0.000000
1.690373 0.556586 0.000000
1.710987 0.556586 0.000000
1.731602 0.556586 0.000000
1.752216 0.556586 0.000000
1.772830 0.556586 0.000000
1.793445 0.556586 0.000000
1.814059 0.556586 0.000000
1.834673 0.556586 0.000000
1.855288 0.556586 0.000000
1.875902 0.556586 0.000000
1.896516 0.556586 0.000000
1.917130 0.556586 0.000000
1.937745 0.556586 0.000000
1.958359 0.556586 0.000000
1.978973 0.556586 0.000000
1.999588 0.556586 0.000000
2.020202 0.556586 0.000000
1.010101 0.566893 0.000000
1.030715 0.566893 0.000000
1.051330 0.566893 0.000000
1.071944 0.566893 0.000000
1.092558 0.566893 0.000000
1.113173 0.566893 0.000000
1.133787 0.566893 0.000000
1.154401 0.566893 0.000000
1.175015 0.566893 0.000000
1.195630 0.566893 0.000000
1.216244 0.566893 0.000000
1.236858 0.566893 0.000000
1.257473 0.566893 0.000000
1.278087 0.566893 0.000000
1.298701 0.566893 0.000000
1.319316 0.566893 0.000000
1.339930 0.566893 0.000000
1.360544 0.566893 0.000000
1.381159 0.566893 0.000000
1.401773 0.566893 0.000000
1.422387 0.566893 0.000000
1.443001 0.566893 0.000000
1.463616 0.566893 0.000000
1.484230 0.566893 0.000000
1.504844 0.566893 0.000000
1.525459 0.566893 0.000000
1.546073 0.566893 0.000000
1.566687 0.566893 0.000000
1.587302 0.566893 0.000000
1.607916 0.566893 0.000000
1.628530 0.566893 0.000000
1.649145 0.566893 0.000000
1.669759 0.566893 0.000000
1.690373 0.566893 0.000000
1.710987 0.566893 0.000000
1.731602 0.566893 0.000000
1.752216 0.566893 0.000000
1.772830 0.566893 0.000000
1.793445 0.566893 0.000000
1.814059 0.566893 0.000000
1.834673 0.566893 0.000000
1.855288 0.566893 0.000000
1.875902 0.566893 0.000000
1.896516 0.566893 0.000000
1.917130 0.566893 0.000000
1.937745 0.566893 0.000000
1.958359 0.566893 0.000000
1.978973 0.566893 0.000000
1.999588 0.566893 0.000000
2.020202 0.566893 0.000000
1.010101 0.577201 0.000000
1.030715 0.577201 0.000000
1.051330 0.577201 0.000000
1.071944 0.577201 0.000000
1.092558 0.577201 0.000000
1.113173 0.577201 0.000000
1.133787 0.577201 0.000000
1.154401 0.577201 0.000000
1.175015 0.577201 0.000000
1.195630 0.577201 0.000000
1.216244 0.577201 0.000000
1.236858 0.577201 0.000000
1.257473 0.577201 0.000000
1.278087 0.577201 0.000000
1.298701 0.577201 0.000000
1.319316 0.577201 0.000000
[...]
POINT_DATA 2500
SCALARS P float 1
LOOKUP_TABLE default
 1.673809
 1.707285
 1.740761
 1.774237
 1.807714
 1.841190
 1.874666
 1.908142
 1.941618
 1.975094
 2.008571
 2.042047
 2.075523
 2.108999
 2.142475
 2.175951
 2.209428
 2.242904
 2.276380
 2.309856
 2.343332
 2.376808
 2.410284
 2.443761
 2.477237
 2.510713
 2.544189
 2.577665
 2.611141
 2.644617
 2.678093
 2.711570
 2.745046
 2.778522
 2.811998
 2.845474
 2.878950
 2.912426
 2.945902
 2.979378
 3.012854
 3.046330
 3.079806
 3.113282
 3.146758
 3.180234
 3.213710
 3.247186
 3.280662
 3.314138
 1.690802
 1.724618
 1.758434
 1.792250
 1.826066
 1.859882
 1.893698
 1.927514
 1.961330
 1.995146
 2.028962
 2.062778
 2.096594
 2.130410
 2.164226
 2.198042
 2.231858
 2.265674
 2.299490
 2.333306
 2.367122
 2.400938
 2.434754
 2.468570
 2.502386
 2.536202
 2.570018
 2.603834
 2.637650
 2.671466
 2.705282
 2.739098
 2.772914
 2.806730
 2.840546
 2.874362
 2.908178
 2.941994
 2.975810
 3.009625
 3.043441
 3.077257
 3.111073
 3.144889
 3.178705
 3.212521
 3.246337
 3.280153
 3.313968
 3.347784
 1.707967
 1.742126
 1.776286
 1.810445
 1.844604
 1.878764
 1.912923
 1.947082
 1.981242
 2.015401
 2.049560
 2.083720
 2.117879
 2.152038
 2.186198
 2.220357
 2.254516
 2.288676
 2.322835
 2.356994
 2.391154
 2.425313
 2.459472
 2.493631
 2.527791
 2.561950
 2.596109
 2.630269
 2.664428
 2.698587
 2.732747
 2.766906
 2.801065
 2.835224
 2.869384
 2.903543
 2.937702
 2.971861
 3.006021
 3.040180
 3.074339
 3.108498
 3.142657
 3.176817
 3.210976
 3.245135
 3.279294
 3.313453
 3.347612
 3.381772
 1.725307
 1.759813
 1.794319
 1.828825
 1.863331
 1.897837
 1.932343
 1.966850
 2.001356
 2.035862
 2.070368
 2.104874
 2.139380
 2.173886
 2.208392
 2.242898
 2.277405
 2.311911
 2.346417
 2.380923
 2.415429
 2.449935
 2.484441
 2.518947
 2.553453
 2.587959
 2.622466
 2.656972
 2.691478
 2.725984
 2.760490
 2.794996
 2.829502
 2.864008
 2.898514
 2.933020
 2.967526
 3.002032
 3.036538
 3.071044
 3.105550
 3.140056
 3.174562
 3.209068
 3.243574
 3.278080
 3.312586
 3.347092
 3.381598
 3.416104
 1.742822
 1.777679
 1.812535
 1.847392
 1.882248
 1.917105
 1.951961
 1.986817
 2.021674
 2.056530
 2.091387
 2.126243
 2.161100
 2.195956
 2.230812
 2.265669
 2.300525
 2.335382
 2.370238
 2.405095
 2.439951
 2.474807
 2.509664
 2.544520
 2.579377
 2.614233
 2.649089
 2.683946
 2.718802
 2.753659
 2.788515
 2.823371
 2.858228
 2.893084
 2.927940
 2.962797
 2.997653
 3.032509
 3.067366
 3.102222
 3.137078
 3.171935
 3.206791
 3.241647
 3.276504
 3.311360
 3.346216
 3.381072
 3.415929
 3.450785
 1.760516
 1.795726
 1.830936
 1.866147
 1.901357
 1.936567
 1.971778
 2.006988
 2.042198
 2.077409
 2.112619
 2.147829
 2.183039
 2.218250
 2.253460
 2.288670
 2.323881
 2.359091
 2.394301
 2.429511
 2.464722
 2.499932
 2.535142
 2.570353
 2.605563
 2.640773
 2.675983
 2.711194
 2.746404
 2.781614
 2.816824
 2.852035
 2.887245
 2.922455
 2.957665
 2.992876
 3.028086
 3.063296
 3.098506
 3.133716
 3.168927
 3.204137
 3.239347
 3.274557
 3.309767
 3.344978
 3.380188
 3.415398
 3.450608
 3.485818
 1.778389
 1.813957
 1.849524
 1.885092
 1.920660
 1.956228
 1.991795
 2.027363
 2.062931
 2.098499
 2.134067
 2.169634
 2.205202
 2.240770
 2.276338
 2.311905
 2.347473
 2.383041
 2.418609
 2.454176
 2.489744
 2.525312
 2.560880
 2.596447
 2.632015
 2.667583
 2.703150
 2.738718
 2.774286
 2.809854
 2.845421
 2.880989
 2.916557
 2.952124
 2.987692
 3.023260
 3.058828
 3.094395
 3.129963
 3.165531
 3.201098
 3.236666
 3.272234
 3.307801
 3.343369
 3.378936
 3.414504
 3.450072
 3.485639
 3.521207
 1.796443
 1.832372
 1.868301
 1.904230
 1.940159
 1.976088
 2.012017
 2.047945
 2.083874
 2.119803
 2.155732
 2.191661
 2.227590
 2.263519
 2.299447
 2.335376
 2.371305
 2.407234
 2.443163
 2.479092
 2.515020
 2.550949
 2.586878
 2.622807
 2.658736
 2.694665
 2.730593
 2.766522
 2.802451
 2.838380
 2.874309
 2.910237
 2.946166
 2.982095
 3.018024
 3.053953
 3.089881
 3.125810
 3.161739
 3.197668
 3.233596
 3.269525
 3.305454
 3.341383
 3.377311
 3.413240
 3.449169
 3.485097
 3.521026
 3.556955
 1.814681
 1.850975
 1.887268
 1.923562
 1.959856
 1.996149
 2.032443
 2.068737
 2.105030
 2.141324
 2.177617
 2.213911
 2.250205
 2.286498
 2.322792
 2.359085
 2.395379
 2.431673
 2.467966
 2.504260
 2.540553
 2.576847
 2.613141
 2.649434
 2.685728
 2.722021
 2.758315
 2.794608
 2.830902
 2.867196
 2.903489
 2.939783
 2.976076
 3.012370
 3.048663
 3.084957
 3.121250
 3.157544
 3.193837
 3.230131
 3.266424
 3.302718
 3.339011
 3.375305
 3.411598
 3.447892
 3.484185
 3.520479
 3.556772
 3.593066
 1.833104
 1.869766
 1.906428
 1.943090
 1.979753
 2.016415
 2.053077
 2.089739
 2.126401
 2.163063
 2.199725
 2.236387
 2.273049
 2.309711
 2.346373
 2.383035
 2.419697
 2.456359
 2.493021
 2.529684
 2.566346
 2.603008
 2.639670
 2.676332
 2.712994
 2.749656
 2.786318
 2.822980
 2.859642
 2.896304
 2.932966
 2.969628
 3.006290
 3.042952
 3.079614
 3.116276
 3.152938
 3.189600
 3.226262
 3.262924
 3.299586
 3.336248
 3.372910
 3.409572
 3.446234
 3.482896
 3.519557
 3.556219
 3.592881
 3.629543
 1.851714
 1.888749
 1.925783
 1.962817
 1.999851
 2.036886
 2.073920
 2.110954
 2.147988
 2.185023
 2.222057
 2.259091
 2.296126
 2.333160
 2.370194
 2.407228
 2.444263
 2.481297
 2.518331
 2.555365
 2.592400
 2.629434
 2.666468
 2.703502
 2.740537
 2.777571
 2.814605
 2.851639
 2.888674
 2.925708
 2.962742
 2.999776
 3.036810
 3.073845
 3.110879
 3.147913
 3.184947
 3.221981
 3.259016
 3.296050
 3.333084
 3.370118
 3.407152
 3.444186
 3.481220
 3.518255
 3.555289
 3.592323
 3.629357
 3.666391
 1.870513
 1.907923
 1.945334
 1.982744
 2.020154
 2.057564
 2.094975
 2.132385
 2.169795
 2.207205
 2.244616
 2.282026
 2.319436
 2.356846
 2.394257
 2.431667
 2.469077
 2.506487
 2.543898
 2.581308
 2.618718
 2.656128
 2.693539
 2.730949
 2.768359
 2.805769
 2.843179
 2.880590
 2.918000
 2.955410
 2.992820
 3.030230
 3.067641
 3.105051
 3.142461
 3.179871
 3.217281
 3.254692
 3.292102
 3.329512
 3.366922
 3.404332
 3.441742
 3.479152
 3.516562
 3.553973
 3.591383
 3.628793
 3.666203
 3.703613
 1.889503
 1.927293
 1.965083
 2.002873
 2.040663
 2.078453
 2.116243
 2.154033
 2.191823
 2.229613
 2.267403
 2.305193
 2.342984
 2.380774
 2.418564
 2.456354
 2.494144
 2.531934
 2.569724
 2.607514
 2.645304
 2.683094
 2.720884
 2.758674
 2.796464
 2.834254
 2.872044
 2.909834
 2.947624
 2.985414
 3.023204
 3.060994
 3.098784
 3.136574
 3.174364
 3.212154
 3.249944
 3.287734
 3.325524
 3.363314
 3.401104
 3.438894
 3.476684
 3.514473
 3.552263
 3.590053
 3.627843
 3.665633
 3.703423
 3.741213
 1.908686
 1.946859
 1.985033
 2.023207
 2.061380
 2.099554
 2.137728
 2.175901
 2.214075
 2.252249
 2.290423
 2.328596
 2.366770
 2.404944
 2.443117
 2.481291
 2.519465
 2.557638
 2.595812
 2.633986
 2.672159
 2.710333
 2.748507
 2.786680
 2.824854
 2.863028
 2.901201
 2.939375
 2.977549
 3.015722
 3.053896
 3.092070
 3.130243
 3.168417
 3.206591
 3.244764
 3.282938
 3.321112
 3.359285
 3.397459
 3.435632
 3.473806
 3.511979
 3.550153
 3.588327
 3.626500
 3.664674
 3.702847
 3.741021
 3.779194
 1.928063
 1.966624
 2.005185
 2.043747
 2.082308
 2.120869
 2.159430
 2.197992
 2.236553
 2.275114
 2.313675
 2.352237
 2.390798
 2.429359
 2.467920
 2.506482
 2.545043
 2.583604
 2.622165
 2.660726
 2.699288
 2.737849
 2.776410
 2.814971
 2.853533
 2.892094
 2.930655
 2.969216
 3.007777
 3.046339
 3.084900
 3.123461
 3.162022
 3.200583
 3.239145
 3.277706
 3.316267
 3.354828
 3.393389
 3.431950
 3.470512
 3.509073
 3.547634
 3.586195
 3.624756
 3.663317
 3.701878
 3.740439
 3.779000
 3.817561
 1.947637
 1.986590
 2.025542
 2.064495
 2.103448
 2.142401
 2.181353
 2.220306
 2.259259
 2.298211
 2.337164
 2.376117
 2.415070
 2.454022
 2.492975
 2.531928
 2.570881
 2.609833
 2.648786
 2.687739
 2.726691
 2.765644
 2.804597
 2.843549
 2.882502
 2.921455
 2.960408
 2.999360
 3.038313
 3.077266
 3.116218
 3.155171
 3.194124
 3.233076
 3.272029
 3.310982
 3.349934
 3.388887
 3.427840
 3.466792
 3.505745
 3.544697
 3.583650
 3.622603
 3.661555
 3.700508
 3.739460
 3.778413
 3.817365
 3.856318
 1.967410
 2.006758
 2.046106
 2.085454
 2.124802
 2.164151
 2.203499
 2.242847
 2.282195
 2.321543
 2.360892
 2.400240
 2.439588
 2.478936
 2.518284
 2.557632
 2.596981
 2.636329
 2.675677
 2.715025
 2.754373
 2.793721
 2.833070
 2.872418
 2.911766
 2.951114
 2.990462
 3.029810
 3.069158
 3.108507
 3.147855
 3.187203
 3.226551
 3.265899
 3.305247
 3.344595
 3.383943
 3.423292
 3.462640
 3.501988
 3.541336
 3.580684
 3.620032
 3.659380
 3.698728
 3.738076
 3.777424
 3.816772
 3.856120
 3.895468
 1.987383
 2.027131
 2.066878
 2.106626
 2.146374
 2.186121
 2.225869
 2.265617
 2.305364
 2.345112
 2.384860
 2.424607
 2.464355
 2.504103
 2.543850
 2.583598
 2.623346
 2.663093
 2.702841
 2.742589
 2.782336
 2.822084
 2.861831
 2.901579
 2.941327
 2.981074
 3.020822
 3.060570
 3.100317
 3.140065
 3.179812
 3.219560
 3.259308
 3.299055
 3.338803
 3.378550
 3.418298
 3.458045
 3.497793
 3.537541
 3.577288
 3.617036
 3.656783
 3.696531
 3.736278
 3.776026
 3.815773
 3.855521
 3.895268
 3.935016
 2.007559
 2.047711
 2.087862
 2.128013
 2.168164
 2.208315
 2.248467
 2.288618
 2.328769
 2.368920
 2.409071
 2.449222
 2.489374
 2.529525
 2.569676
 2.609827
 2.649978
 2.690129
 2.730281
 2.770432
 2.810583
 2.850734
 2.890885
 2.931036
 2.971188
 3.011339
 3.051490
 3.091641
 3.131792
 3.171943
 3.212094
 3.252246
 3.292397
 3.332548
 3.372699
 3.412850
 3.453001
 3.493152
 3.533303
 3.573454
 3.613605
 3.653757
 3.693908
 3.734059
 3.774210
 3.814361
 3.854512
 3.894663
 3.934814
 3.974965
 2.027941
 2.068499
 2.109058
 2.149617
 2.190176
 2.230735
 2.271293
 2.311852
 2.352411
 2.392970
 2.433529
 2.474087
 2.514646
 2.555205
 2.595764
 2.636323
 2.676881
 2.717440
 2.757999
 2.798558
 2.839116
 2.879675
 2.920234
 2.960793
 3.001352
 3.041910
 3.082469
 3.123028
 3.163587
 3.204145
 3.244704
 3.285263
 3.325822
 3.366380
 3.406939
 3.447498
 3.488057
 3.528615
 3.569174
 3.609733
 3.650291
 3.690850
 3.731409
 3.771968
 3.812526
 3.853085
 3.893643
 3.934202
 3.974761
 4.015319
 2.048529
 2.089499
 2.130470
 2.171440
 2.212411
 2.253381
 2.294352
 2.335323
 2.376293
 2.417264
 2.458234
 2.499205
 2.540175
 2.581146
 2.622116
 2.663087
 2.704058
 2.745028
 2.785999
 2.826969
 2.867940
 2.908910
 2.949881
 2.990851
 3.031822
 3.072792
 3.113763
 3.154733
 3.195704
 3.236674
 3.277645
 3.318616
 3.359586
 3.400557
 3.441527
 3.482498
 3.523468
 3.564439
 3.605409
 3.646379
 3.687350
 3.728320
 3.769291
 3.810261
 3.851232
 3.892202
 3.933172
 3.974143
 4.015113
 4.056084
 2.069326
 2.110712
 2.152099
 2.193485
 2.234872
 2.276258
 2.317645
 2.359031
 2.400418
 2.441804
 2.483191
 2.524577
 2.565964
 2.607350
 2.648737
 2.690123
 2.731510
 2.772896
 2.814283
 2.855669
 2.897056
 2.938442
 2.979829
 3.021215
 3.062601
 3.103988
 3.145374
 3.186761
 3.228147
 3.269534
 3.310920
 3.352307
 3.393693
 3.435080
 3.476466
 3.517852
 3.559239
 3.600625
 3.642012
 3.683398
 3.724785
 3.766171
 3.807557
 3.848944
 3.890330
 3.931716
 3.973103
 4.014489
 4.055875
 4.097262
 2.090334
 2.132140
 2.173947
 2.215754
 2.257560
 2.299367
 2.341174
 2.382980
 2.424787
 2.466594
 2.508400
 2.550207
 2.592014
 2.633820
 2.675627
 2.717434
 2.759240
 2.801047
 2.842854
 2.884660
 2.926467
 2.968274
 3.010080
 3.051887
 3.093694
 3.135500
 3.177307
 3.219113
 3.260920
 3.302727
 3.344533
 3.386340
 3.428147
 3.469953
 3.511760
 3.553566
 3.595373
 3.637180
 3.678986
 3.720793
 3.762599
 3.804406
 3.846212
 3.888019
 3.929826
 3.971632
 4.013439
 4.055245
 4.097052
 4.138858
 2.111555
 2.153786
 2.196017
 2.238248
 2.280480
 2.322711
 2.364942
 2.407173
 2.449404
 2.491635
 2.533866
 2.576097
 2.618328
 2.660559
 2.702791
 2.745022
 2.787253
 2.829484
 2.871715
 2.913946
 2.956177
 2.998408
 3.040639
 3.082870
 3.125101
 3.167332
 3.209563
 3.251794
 3.294026
 3.336257
 3.378488
 3.420719
 3.462950
 3.505181
 3.547412
 3.589643
 3.631874
 3.674105
 3.716336
 3.758567
 3.800798
 3.843029
 3.885260
 3.927491
 3.969722
 4.011953
 4.054184
 4.096415
 4.138646
 4.180877
 2.132992
 2.175652
 2.218312
 2.260972
 2.303631
 2.346291
 2.388951
 2.431611
 2.474271
 2.516931
 2.559590
 2.602250
 2.644910
 2.687570
 2.730230
 2.772890
 2.815549
 2.858209
 2.900869
 2.943529
 2.986189
 3.028848
 3.071508
 3.114168
 3.156828
 3.199488
 3.242148
 3.284807
 3.327467
 3.370127
 3.412787
 3.455446
 3.498106
 3.540766
 3.583426
 3.626086
 3.668745
 3.711405
 3.754065
 3.796725
 3.839384
 3.882044
 3.924704
 3.967364
 4.010023
 4.052683
 4.095343
 4.138002
 4.180662
 4.223322
 2.154647
 2.197740
 2.240832
 2.283925
 2.327018
 2.370111
 2.413204
 2.456297
 2.499390
 2.542483
 2.585576
 2.628669
 2.671762
 2.714855
 2.757947
 2.801040
 2.844133
 2.887226
 2.930319
 2.973412
 3.016505
 3.059598
 3.102691
 3.145784
 3.188877
 3.231969
 3.275062
 3.318155
 3.361248
 3.404341
 3.447434
 3.490527
 3.533620
 3.576713
 3.619805
 3.662898
 3.705991
 3.749084
 3.792177
 3.835270
 3.878363
 3.921455
 3.964548
 4.007641
 4.050734
 4.093827
 4.136919
 4.180012
 4.223105
 4.266198
 2.176521
 2.220051
 2.263582
 2.307112
 2.350643
 2.394173
 2.437703
 2.481234
 2.524764
 2.568295
 2.611825
 2.655355
 2.698886
 2.742416
 2.785947
 2.829477
 2.873007
 2.916538
 2.960068
 3.003599
 3.047129
 3.090659
 3.134190
 3.177720
 3.221251
 3.264781
 3.308311
 3.351842
 3.395372
 3.438903
 3.482433
 3.525963
 3.569494
 3.613024
 3.656554
 3.700085
 3.743615
 3.787145
 3.830676
 3.874206
 3.917736
 3.961267
 4.004797
 4.048327
 4.091858
 4.135388
 4.178918
 4.222448
 4.265979
 4.309509
 2.198617
 2.242590
 2.286562
 2.330534
 2.374507
 2.418479
 2.462451
 2.506424
 2.550396
 2.594368
 2.638341
 2.682313
 2.726285
 2.770258
 2.814230
 2.858202
 2.902175
 2.946147
 2.990119
 3.034092
 3.078064
 3.122036
 3.166009
 3.209981
 3.253953
 3.297926
 3.341898
 3.385870
 3.429843
 3.473815
 3.517787
 3.561760
 3.605732
 3.649704
 3.693676
 3.737649
 3.781621
 3.825593
 3.869565
 3.913538
 3.957510
 4.001482
 4.045454
 4.089427
 4.133399
 4.177371
 4.221343
 4.265316
 4.309288
 4.353260
 2.220938
 2.265357
 2.309776
 2.354194
 2.398613
 2.443032
 2.487451
 2.531869
 2.576288
 2.620707
 2.665126
 2.709544
 2.753963
 2.798382
 2.842801
 2.887219
 2.931638
 2.976057
 3.020476
 3.064894
 3.109313
 3.153732
 3.198151
 3.242569
 3.286988
 3.331407
 3.375826
 3.420244
 3.464663
 3.509082
 3.553500
 3.597919
 3.642338
 3.686757
 3.731175
 3.775594
 3.820013
 3.864431
 3.908850
 3.953269
 3.997687
 4.042106
 4.086525
 4.130943
 4.175362
 4.219781
 4.264199
 4.308618
 4.353036
 4.397455
 2.243485
 2.288355
 2.333225
 2.378095
 2.422964
 2.467834
 2.512704
 2.557573
 2.602443
 2.647313
 2.692182
 2.737052
 2.781922
 2.826792
 2.871661
 2.916531
 2.961401
 3.006270
 3.051140
 3.096010
 3.140879
 3.185749
 3.230619
 3.275488
 3.320358
 3.365228
 3.410098
 3.454967
 3.499837
 3.544707
 3.589576
 3.634446
 3.679316
 3.724185
 3.769055
 3.813924
 3.858794
 3.903664
 3.948533
 3.993403
 4.038273
 4.083142
 4.128012
 4.172881
 4.217751
 4.262621
 4.307490
 4.352360
 4.397229
 4.442099
 2.266262
 2.311587
 2.356912
 2.402237
 2.447563
 2.492888
 2.538213
 2.583538
 2.628864
 2.674189
 2.719514
 2.764839
 2.810164
 2.855490
 2.900815
 2.946140
 2.991465
 3.036791
 3.082116
 3.127441
 3.172766
 3.218091
 3.263417
 3.308742
 3.354067
 3.399392
 3.444717
 3.490043
 3.535368
 3.580693
 3.626018
 3.671343
 3.716669
 3.761994
 3.807319
 3.852644
 3.897969
 3.943295
 3.988620
 4.033945
 4.079270
 4.124595
 4.169920
 4.215245
 4.260570
 4.305896
 4.351221
 4.396546
 4.441871
 4.487196
 2.289269
 2.335055
 2.380840
 2.426625
 2.472411
 2.518196
 2.563981
 2.609767
 2.655552
 2.701338
 2.747123
 2.792908
 2.838694
 2.884479
 2.930264
 2.976050
 3.021835
 3.067621
 3.113406
 3.159191
 3.204977
 3.250762
 3.296547
 3.342333
 3.388118
 3.433903
 3.479689
 3.525474
 3.571260
 3.617045
 3.662830
 3.708616
 3.754401
 3.800186
 3.845972
 3.891757
 3.937542
 3.983328
 4.029113
 4.074898
 4.120683
 4.166469
 4.212254
 4.258039
 4.303825
 4.349610
 4.395395
 4.441180
 4.486966
 4.532751
 2.312510
 2.358760
 2.405011
 2.451261
 2.497511
 2.543761
 2.590011
 2.636262
 2.682512
 2.728762
 2.775012
 2.821262
 2.867513
 2.913763
 2.960013
 3.006263
 3.052513
 3.098764
 3.145014
 3.191264
 3.237514
 3.283764
 3.330015
 3.376265
 3.422515
 3.468765
 3.515015
 3.561265
 3.607516
 3.653766
 3.700016
 3.746266
 3.792516
 3.838766
 3.885017
 3.931267
 3.977517
 4.023767
 4.070017
 4.116267
 4.162517
 4.208768
 4.255018
 4.301268
 4.347518
 4.393768
 4.440018
 4.486268
 4.532518
 4.578768
 2.335987
 2.382707
 2.429427
 2.476146
 2.522866
 2.569586
 2.616306
 2.663025
 2.709745
 2.756465
 2.803185
 2.849904
 2.896624
 2.943344
 2.990064
 3.036783
 3.083503
 3.130223
 3.176943
 3.223662
 3.270382
 3.317102
 3.363821
 3.410541
 3.457261
 3.503981
 3.550700
 3.597420
 3.644140
 3.690859
 3.737579
 3.784299
 3.831019
 3.877738
 3.924458
 3.971178
 4.017897
 4.064617
 4.111337
 4.158056
 4.204776
 4.251496
 4.298215
 4.344935
 4.391655
 4.438374
 4.485094
 4.531814
 4.578533
 4.625253
 2.359703
 2.406897
 2.454091
 2.501285
 2.548479
 2.595673
 2.642867
 2.690061
 2.737255
 2.784449
 2.831643
 2.878837
 2.926031
 2.973225
 3.020419
 3.067613
 3.114807
 3.162001
 3.209195
 3.256389
 3.303583
 3.350778
 3.397972
 3.445166
 3.492360
 3.539554
 3.586748
 3.633942
 3.681136
 3.728330
 3.775524
 3.822718
 3.869912
 3.917106
 3.964300
 4.011494
 4.058688
 4.105882
 4.153076
 4.200270
 4.247464
 4.294658
 4.341852
 4.389046
 4.436240
 4.483434
 4.530628
 4.577821
 4.625015
 4.672209
 2.383659
 2.431332
 2.479005
 2.526678
 2.574351
 2.622025
 2.669698
 2.717371
 2.765044
 2.812717
 2.860390
 2.908064
 2.955737
 3.003410
 3.051083
 3.098756
 3.146429
 3.194103
 3.241776
 3.289449
 3.337122
 3.384795
 3.432468
 3.480142
 3.527815
 3.575488
 3.623161
 3.670834
 3.718507
 3.766180
 3.813854
 3.861527
 3.909200
 3.956873
 4.004546
 4.052219
 4.099892
 4.147565
 4.195239
 4.242912
 4.290585
 4.338258
 4.385931
 4.433604
 4.481277
 4.528950
 4.576623
 4.624296
 4.671969
 4.719642
 2.407858
 2.456015
 2.504172
 2.552329
 2.600487
 2.648644
 2.696801
 2.744958
 2.793115
 2.841272
 2.889430
 2.937587
 2.985744
 3.033901
 3.082058
 3.130215
 3.178372
 3.226530
 3.274687
 3.322844
 3.371001
 3.419158
 3.467315
 3.515473
 3.563630
 3.611787
 3.659944
 3.708101
 3.756258
 3.804415
 3.852572
 3.900730
 3.948887
 3.997044
 4.045201
 4.093358
 4.141515
 4.189672
 4.237829
 4.285987
 4.334144
 4.382301
 4.430458
 4.478615
 4.526772
 4.574929
 4.623086
 4.671243
 4.719400
 4.767557
 2.432303
 2.480949
 2.529595
 2.578241
 2.626887
 2.675533
 2.724179
 2.772825
 2.821471
 2.870118
 2.918764
 2.967410
 3.016056
 3.064702
 3.113348
 3.161994
 3.210640
 3.259286
 3.307932
 3.356578
 3.405224
 3.453870
 3.502516
 3.551162
 3.599808
 3.648454
 3.697100
 3.745746
 3.794392
 3.843038
 3.891684
 3.940331
 3.988977
 4.037623
 4.086269
 4.134915
 4.183561
 4.232207
 4.280853
 4.329499
 4.378145
 4.426791
 4.475437
 4.524083
 4.572729
 4.621375
 4.670021
 4.718666
 4.767312
 4.815958
 2.456996
 2.506136
 2.555276
 2.604416
 2.653556
 2.702696
 2.751836
 2.800976
 2.850116
 2.899255
 2.948395
 2.997535
 3.046675
 3.095815
 3.144955
 3.194095
 3.243235
 3.292375
 3.341515
 3.390655
 3.439795
 3.488934
 3.538074
 3.587214
 3.636354
 3.685494
 3.734634
 3.783774
 3.832914
 3.882054
 3.931194
 3.980333
 4.029473
 4.078613
 4.127753
 4.176893
 4.226033
 4.275173
 4.324313
 4.373453
 4.422592
 4.471732
 4.520872
 4.570012
 4.619152
 4.668292
 4.717431
 4.766571
 4.815711
 4.864851
 2.481940
 2.531579
 2.581218
 2.630856
 2.680495
 2.730134
 2.779773
 2.829412
 2.879050
 2.928689
 2.978328
 3.027967
 3.077606
 3.127244
 3.176883
 3.226522
 3.276161
 3.325800
 3.375438
 3.425077
 3.474716
 3.524355
 3.573993
 3.623632
 3.673271
 3.722910
 3.772549
 3.822187
 3.871826
 3.921465
 3.971104
 4.020743
 4.070381
 4.120020
 4.169659
 4.219298
 4.268936
 4.318575
 4.368214
 4.417853
 4.467491
 4.517130
 4.566769
 4.616408